/*--------------------------------*- C++ -*----------------------------------*\
| =========                 |                                                 |
| \\      /  F ield         | foam-extend: Open Source CFD                    |
|  \\    /   O peration     | Version:     3.2                                |
|   \\  /    A nd           | Web:         http://www.foam-extend.org         |
|    \\/     M anipulation  | For copyright notice see file Copyright         |
\*---------------------------------------------------------------------------*/
FoamFile
{
    version     2.0;
    format      ascii;
    class       volVectorField;
    location    "1";
    object      cellDisplacement;
}
// * * * * * * * * * * * * * * * * * * * * * * * * * * * * * * * * * * * * * //

dimensions      [0 1 0 0 0 0 0];

internalField   nonuniform List<vector> 
3200
(
(-1.68448968401e-07 -0.000795153449894 0)
(-4.98784242454e-07 -0.00235433778907 0)
(-8.16703684181e-07 -0.00385349060981 0)
(-1.12366947359e-06 -0.00529794604999 0)
(-1.42117515588e-06 -0.00669297699777 0)
(-1.7105508189e-06 -0.00804334708981 0)
(-1.99300734978e-06 -0.00935327891877 0)
(-2.26962352013e-06 -0.0106264651962 0)
(-2.54138315367e-06 -0.0118659639137 0)
(-2.80915021052e-06 -0.0130742064964 0)
(-3.07369199275e-06 -0.0142530343814 0)
(-3.33563964867e-06 -0.015403606876 0)
(-3.59547122126e-06 -0.0165264452724 0)
(-3.8534136675e-06 -0.0176211055494 0)
(-4.10981017145e-06 -0.0186881508306 0)
(-4.36422018309e-06 -0.0197256746412 0)
(-4.61518377291e-06 -0.0207295181266 0)
(-4.86064833828e-06 -0.0216961708134 0)
(-5.09669353224e-06 -0.0226203937385 0)
(-5.31683300361e-06 -0.0234956120276 0)
(-5.50982885254e-06 -0.0243125694864 0)
(-5.65756327503e-06 -0.0250604943794 0)
(-5.7303387934e-06 -0.0257255918461 0)
(-5.6782663078e-06 -0.0262926187156 0)
(-1.64301062752e-07 -0.000779700543839 0)
(-4.8654771851e-07 -0.00230884632787 0)
(-7.96721639369e-07 -0.00377969367198 0)
(-1.09614394551e-06 -0.00519730069712 0)
(-1.38615733436e-06 -0.00656672403211 0)
(-1.66795295496e-06 -0.00789248984262 0)
(-1.94258883999e-06 -0.00917860725151 0)
(-2.21098959422e-06 -0.0104285558424 0)
(-2.47395226556e-06 -0.0116451966664 0)
(-2.73212825554e-06 -0.012830774895 0)
(-2.98602161919e-06 -0.0139869333319 0)
(-3.23595789633e-06 -0.0151147108506 0)
(-3.48203615254e-06 -0.0162145127969 0)
(-3.72403963466e-06 -0.01728599924 0)
(-3.9614081963e-06 -0.0183284484364 0)
(-4.19313190121e-06 -0.0193404493937 0)
(-4.41694698888e-06 -0.0203184948925 0)
(-4.62961970241e-06 -0.0212589668114 0)
(-4.82560308923e-06 -0.0221559853375 0)
(-4.99720698187e-06 -0.0230042202858 0)
(-5.1323901753e-06 -0.0237955503007 0)
(-5.21305437111e-06 -0.0245194238044 0)
(-5.21347173695e-06 -0.0251669149676 0)
(-5.09880138104e-06 -0.0257258040222 0)
(-1.59419334436e-07 -0.000761169509078 0)
(-4.72146174205e-07 -0.00225436776791 0)
(-7.73213341062e-07 -0.00369138796259 0)
(-1.06378698898e-06 -0.00507697658537 0)
(-1.34504692115e-06 -0.00641588744102 0)
(-1.61802750223e-06 -0.0077123612828 0)
(-1.88362743033e-06 -0.0089701579089 0)
(-2.14260717162e-06 -0.0101925228708 0)
(-2.3955808306e-06 -0.0113821312221 0)
(-2.64297930498e-06 -0.0125409944576 0)
(-2.88505340104e-06 -0.0136705471207 0)
(-3.12184672436e-06 -0.0147716978469 0)
(-3.353136414e-06 -0.0158448094332 0)
(-3.57826334039e-06 -0.0168893086276 0)
(-3.79615315219e-06 -0.0179041400735 0)
(-4.00518231766e-06 -0.0188878512533 0)
(-4.20233540746e-06 -0.0198366793071 0)
(-4.38381769012e-06 -0.0207477584257 0)
(-4.54377384828e-06 -0.0216160152238 0)
(-4.67375392111e-06 -0.0224344095585 0)
(-4.762792081e-06 -0.0231969979064 0)
(-4.79463896176e-06 -0.023895223691 0)
(-4.74925877296e-06 -0.0245204710593 0)
(-4.60367874206e-06 -0.0250631357387 0)
(-1.53931992678e-07 -0.000740010569276 0)
(-4.55958386842e-07 -0.00219218058778 0)
(-7.46798304716e-07 -0.00359060581385 0)
(-1.02745392919e-06 -0.00493969469882 0)
(-1.29893057708e-06 -0.00624382327861 0)
(-1.5620989105e-06 -0.00750689925327 0)
(-1.81769593238e-06 -0.00873239504422 0)
(-2.06632321523e-06 -0.00992333354471 0)
(-2.3084355075e-06 -0.0110822658126 0)
(-2.54423725864e-06 -0.0122108972745 0)
(-2.77373563593e-06 -0.0133103732978 0)
(-2.9967285539e-06 -0.0143814601175 0)
(-3.21280467564e-06 -0.0154247778031 0)
(-3.42083328674e-06 -0.0164391496855 0)
(-3.61930428928e-06 -0.0174229778307 0)
(-3.80630636712e-06 -0.0183754618333 0)
(-3.97873438104e-06 -0.019293655117 0)
(-4.1320783679e-06 -0.0201727756813 0)
(-4.26082859884e-06 -0.021008902006 0)
(-4.35713948593e-06 -0.0217961530661 0)
(-4.41069621728e-06 -0.0225283111079 0)
(-4.4087579633e-06 -0.0231979792843 0)
(-4.33673367483e-06 -0.0237977662143 0)
(-4.17785087763e-06 -0.0243175783531 0)
(-1.47908807211e-07 -0.000716393345617 0)
(-4.38189915444e-07 -0.00212274581807 0)
(-7.17822931881e-07 -0.00347812675051 0)
(-9.87637329688e-07 -0.00478653630157 0)
(-1.24844836825e-06 -0.0060518773985 0)
(-1.50096127897e-06 -0.00727768637745 0)
(-1.74575209553e-06 -0.00846710594112 0)
(-1.98326756679e-06 -0.00962290520208 0)
(-2.2138910552e-06 -0.0107478363998 0)
(-2.43755625903e-06 -0.0118430560457 0)
(-2.65403113449e-06 -0.0129092646634 0)
(-2.86284785203e-06 -0.0139467931689 0)
(-3.06350874607e-06 -0.0149569214146 0)
(-3.25482166227e-06 -0.0159389004908 0)
(-3.43482522675e-06 -0.0168900454557 0)
(-3.60124797143e-06 -0.0178088084849 0)
(-3.7511934399e-06 -0.0186931978497 0)
(-3.88038188569e-06 -0.0195393462556 0)
(-3.98308909195e-06 -0.0203418753138 0)
(-4.05254285057e-06 -0.0210962502224 0)
(-4.08025664825e-06 -0.0217965940625 0)
(-4.05658512205e-06 -0.0224364463974 0)
(-3.97015652471e-06 -0.0230086315095 0)
(-3.81023657923e-06 -0.02350322332 0)
(-1.4141972012e-07 -0.000690478955837 0)
(-4.19035242337e-07 -0.00204648973782 0)
(-6.8662676523e-07 -0.00335470366491 0)
(-9.44833516112e-07 -0.00461863626237 0)
(-1.19424278876e-06 -0.00584146884236 0)
(-1.43540982335e-06 -0.00702639755212 0)
(-1.668751782e-06 -0.00817619459956 0)
(-1.89449520521e-06 -0.00929301932413 0)
(-2.11303943743e-06 -0.010380265892 0)
(-2.32428307601e-06 -0.0114393306872 0)
(-2.52760218813e-06 -0.0124696091608 0)
(-2.72246457291e-06 -0.0134717948535 0)
(-2.9080010911e-06 -0.0144460333875 0)
(-3.08307535914e-06 -0.0153921231901 0)
(-3.24577004987e-06 -0.0163081197083 0)
(-3.39366028239e-06 -0.0171917929897 0)
(-3.52380011019e-06 -0.0180407870061 0)
(-3.63213071157e-06 -0.0188518103721 0)
(-3.71380802726e-06 -0.0196204854018 0)
(-3.76282880795e-06 -0.0203409253933 0)
(-3.77268793259e-06 -0.0210088208356 0)
(-3.73561944242e-06 -0.0216177829606 0)
(-3.64336986701e-06 -0.0221612390597 0)
(-3.4900430724e-06 -0.0226310603623 0)
(-1.3454544778e-07 -0.000662498126205 0)
(-3.98660850833e-07 -0.00196373362563 0)
(-6.5345569551e-07 -0.00322076559322 0)
(-8.99443774578e-07 -0.00443683994939 0)
(-1.13682081267e-06 -0.00561358420218 0)
(-1.36607906321e-06 -0.00675421401362 0)
(-1.58752640079e-06 -0.00786133697936 0)
(-1.80131310398e-06 -0.00893711978218 0)
(-2.00747050425e-06 -0.0099835965461 0)
(-2.20590539917e-06 -0.0110024542603 0)
(-2.39605318321e-06 -0.0119938564188 0)
(-2.57720030892e-06 -0.0129579757071 0)
(-2.74837854838e-06 -0.0138947078175 0)
(-2.90823357468e-06 -0.0148032114821 0)
(-3.05503231242e-06 -0.015682302763 0)
(-3.18620492342e-06 -0.0165288939603 0)
(-3.29903413719e-06 -0.0173412283226 0)
(-3.38995246617e-06 -0.0181160052445 0)
(-3.45495548515e-06 -0.0188491740088 0)
(-3.48904968303e-06 -0.0195358013377 0)
(-3.48683463638e-06 -0.0201709853891 0)
(-3.4424542577e-06 -0.020749290994 0)
(-3.35029593325e-06 -0.0212636888323 0)
(-3.20729838357e-06 -0.0217082241085 0)
(-1.27415746218e-07 -0.000632947038274 0)
(-3.77681545932e-07 -0.00187706205274 0)
(-6.19073870244e-07 -0.0030792809099 0)
(-8.5201138344e-07 -0.00424268725976 0)
(-1.07678160594e-06 -0.00536965276653 0)
(-1.29367031423e-06 -0.00646267646078 0)
(-1.50285468939e-06 -0.00752399254454 0)
(-1.70438020029e-06 -0.00855554520413 0)
(-1.89815506128e-06 -0.00955899401901 0)
(-2.08390488792e-06 -0.0105355235388 0)
(-2.26109320624e-06 -0.0114856356217 0)
(-2.42891486364e-06 -0.012409245492 0)
(-2.58642470367e-06 -0.0133063887041 0)
(-2.73203133041e-06 -0.0141751907932 0)
(-2.86416741289e-06 -0.0150151469137 0)
(-2.98065434365e-06 -0.0158241537178 0)
(-3.07870178298e-06 -0.0165986017991 0)
(-3.15552978567e-06 -0.0173364817832 0)
(-3.20754701207e-06 -0.0180337740636 0)
(-3.23073092465e-06 -0.0186859259074 0)
(-3.22080998951e-06 -0.0192883047459 0)
(-3.17346057777e-06 -0.0198358628233 0)
(-3.08512445277e-06 -0.0203225535515 0)
(-2.95398853936e-06 -0.0207417116819 0)
(-1.20028505395e-07 -0.000601668500849 0)
(-3.55873991327e-07 -0.00178493547081 0)
(-5.83437122976e-07 -0.00292926323207 0)
(-8.02995151856e-07 -0.00403732587636 0)
(-1.01479156203e-06 -0.00511150919469 0)
(-1.21899848322e-06 -0.00615398392358 0)
(-1.41567835294e-06 -0.00716662706429 0)
(-1.60478075625e-06 -0.00815111893167 0)
(-1.78612998469e-06 -0.00910888056073 0)
(-1.95933787434e-06 -0.0100407411728 0)
(-2.12390777894e-06 -0.0109474705157 0)
(-2.27883085564e-06 -0.0118281013801 0)
(-2.4232458638e-06 -0.0126831385182 0)
(-2.55581528146e-06 -0.0135115834014 0)
(-2.67470343469e-06 -0.0143108794135 0)
(-2.77822302492e-06 -0.0150801837354 0)
(-2.86395794968e-06 -0.0158164991137 0)
(-2.92931341622e-06 -0.0165170120744 0)
(-2.97132490657e-06 -0.0171780445008 0)
(-2.98677379961e-06 -0.0177955859678 0)
(-2.97234731866e-06 -0.0183651317433 0)
(-2.92485861392e-06 -0.0188817376354 0)
(-2.84243145793e-06 -0.0193414797869 0)
(-2.72374004294e-06 -0.0197367714397 0)
(-1.12449954457e-07 -0.000568864607238 0)
(-3.33485698159e-07 -0.0016881863821 0)
(-5.4686748998e-07 -0.00277170307185 0)
(-7.52757592448e-07 -0.0038217001553 0)
(-9.51313857105e-07 -0.00484035767621 0)
(-1.14263028722e-06 -0.00582959397953 0)
(-1.32665838144e-06 -0.00679092720272 0)
(-1.50326189773e-06 -0.00772570490652 0)
(-1.67226314202e-06 -0.0086354604913 0)
(-1.83306606303e-06 -0.00952009931994 0)
(-1.98524539008e-06 -0.0103808803841 0)
(-2.12798653979e-06 -0.0112176198146 0)
(-2.26007543426e-06 -0.0120287221828 0)
(-2.38051526424e-06 -0.0128142673791 0)
(-2.4877102162e-06 -0.0135723478429 0)
(-2.57995324381e-06 -0.0143011978107 0)
(-2.6552151536e-06 -0.0149983355508 0)
(-2.71125484645e-06 -0.0156608528467 0)
(-2.74563209376e-06 -0.0162854424736 0)
(-2.75578919987e-06 -0.0168683567208 0)
(-2.73919314807e-06 -0.0174055246145 0)
(-2.69364218088e-06 -0.0178917923574 0)
(-2.61814002154e-06 -0.0183245834326 0)
(-2.51178853852e-06 -0.0186968439354 0)
(-1.04733585006e-07 -0.000534694783808 0)
(-3.10682977797e-07 -0.00158735908468 0)
(-5.09631587968e-07 -0.00260742538255 0)
(-7.01633292093e-07 -0.00359681077439 0)
(-8.86749332783e-07 -0.00455730833437 0)
(-1.0650626228e-06 -0.00549092683052 0)
(-1.23637772807e-06 -0.00639855344982 0)
(-1.4004198014e-06 -0.00728089711996 0)
(-1.55708281151e-06 -0.00813998219911 0)
(-1.70590066637e-06 -0.00897632507279 0)
(-1.84607192516e-06 -0.00978911328907 0)
(-1.97703477493e-06 -0.0105791122809 0)
(-2.0977462413e-06 -0.0113453168984 0)
(-2.20710117986e-06 -0.0120868936549 0)
(-2.30373526023e-06 -0.0128023218419 0)
(-2.38610693767e-06 -0.0134897596481 0)
(-2.45247741744e-06 -0.0141468546392 0)
(-2.5009571308e-06 -0.0147708563203 0)
(-2.52955157683e-06 -0.0153586917276 0)
(-2.5362548385e-06 -0.01590689043 0)
(-2.51917080525e-06 -0.0164118805837 0)
(-2.47686266682e-06 -0.016868969382 0)
(-2.40856124084e-06 -0.0172747775089 0)
(-2.31403923141e-06 -0.0176244229326 0)
(-9.69248107928e-08 -0.00049932352282 0)
(-2.87593725482e-07 -0.00148286618461 0)
(-4.71949939634e-07 -0.00243717294268 0)
(-6.49924535536e-07 -0.00336364472441 0)
(-8.21406343497e-07 -0.00426327069426 0)
(-9.86546850692e-07 -0.00513852977009 0)
(-1.14519190291e-06 -0.00599052982588 0)
(-1.29687959337e-06 -0.0068190553837 0)
(-1.4413410568e-06 -0.00762525523501 0)
(-1.57826505473e-06 -0.0084102633827 0)
(-1.70697799164e-06 -0.00917376290389 0)
(-1.82678044368e-06 -0.00991566111396 0)
(-1.93677211526e-06 -0.0106352445659 0)
(-2.03591497958e-06 -0.011331521244 0)
(-2.12300349682e-06 -0.0120030880984 0)
(-2.19668475345e-06 -0.0126480946575 0)
(-2.25547412305e-06 -0.0132643415492 0)
(-2.29779133739e-06 -0.0138492868903 0)
(-2.32201844277e-06 -0.0144000036691 0)
(-2.3265894672e-06 -0.014913279042 0)
(-2.31008605695e-06 -0.0153859436159 0)
(-2.271636461e-06 -0.0158138811366 0)
(-2.21066513084e-06 -0.0161936770449 0)
(-2.12726663506e-06 -0.0165209609216 0)
(-8.90669953111e-08 -0.000462911925087 0)
(-2.64295357393e-07 -0.00137493673905 0)
(-4.33916406855e-07 -0.002261185063 0)
(-5.97840070113e-07 -0.00312295991518 0)
(-7.55770635103e-07 -0.00396036635393 0)
(-9.07677754475e-07 -0.00477495186455 0)
(-1.05348137161e-06 -0.00556817256614 0)
(-1.19283900419e-06 -0.00634039888822 0)
(-1.32540952705e-06 -0.00709232122347 0)
(-1.45078399118e-06 -0.00782443479438 0)
(-1.56838636699e-06 -0.0085367508284 0)
(-1.67753717325e-06 -0.00922894706677 0)
(-1.77742116813e-06 -0.00990037411403 0)
(-1.86710011376e-06 -0.0105500288762 0)
(-1.94551012123e-06 -0.0111764857503 0)
(-2.01147853137e-06 -0.0117780771312 0)
(-2.06374413089e-06 -0.0123526933443 0)
(-2.10099259527e-06 -0.0128979524431 0)
(-2.12191598499e-06 -0.013411138782 0)
(-2.12527104578e-06 -0.0138892349825 0)
(-2.10997372245e-06 -0.0143287979222 0)
(-2.0757598028e-06 -0.0147281810377 0)
(-2.02197381945e-06 -0.0150821807626 0)
(-1.94889953493e-06 -0.015387650197 0)
(-8.12266876951e-08 -0.000425784959143 0)
(-2.41138929573e-07 -0.00126532068773 0)
(-3.95946714167e-07 -0.00208144798143 0)
(-5.45568339755e-07 -0.00287549400689 0)
(-6.89826856454e-07 -0.00364816176156 0)
(-8.2858650272e-07 -0.00440043732613 0)
(-9.61672878039e-07 -0.00513324278231 0)
(-1.08879936434e-06 -0.00584720074037 0)
(-1.20961895899e-06 -0.00654273654993 0)
(-1.32370774547e-06 -0.00722022856943 0)
(-1.43053587824e-06 -0.00787957675044 0)
(-1.52947198277e-06 -0.00852048750612 0)
(-1.61978112439e-06 -0.00914226196624 0)
(-1.70062555007e-06 -0.00974388773709 0)
(-1.77107551601e-06 -0.0103241060408 0)
(-1.83012166112e-06 -0.0108812216619 0)
(-1.87669745585e-06 -0.0114133461405 0)
(-1.90971424809e-06 -0.0119183150413 0)
(-1.92811930502e-06 -0.0123935436633 0)
(-1.93092761554e-06 -0.012836372911 0)
(-1.91737246717e-06 -0.0132431096478 0)
(-1.88738863781e-06 -0.0136129176274 0)
(-1.84040876097e-06 -0.0139413219233 0)
(-1.77683334473e-06 -0.0142248220145 0)
(-7.33782587851e-08 -0.000387775150146 0)
(-2.17910560952e-07 -0.00115284104655 0)
(-3.57927852442e-07 -0.00189725260572 0)
(-4.93300567212e-07 -0.00262209082217 0)
(-6.23878118755e-07 -0.00332810599904 0)
(-7.49492649616e-07 -0.00401608481931 0)
(-8.69936977972e-07 -0.00468670989403 0)
(-9.84936459623e-07 -0.00534046643115 0)
(-1.09415374999e-06 -0.00597780352002 0)
(-1.19718087219e-06 -0.00659883169004 0)
(-1.29352633144e-06 -0.00720354912582 0)
(-1.38261710955e-06 -0.0077915377324 0)
(-1.46379369305e-06 -0.00836214315242 0)
(-1.53631917499e-06 -0.00891442966293 0)
(-1.59938500187e-06 -0.009447107107 0)
(-1.65212686184e-06 -0.00995873168756 0)
(-1.69364937775e-06 -0.0104474794262 0)
(-1.72305875531e-06 -0.0109113253594 0)
(-1.73949938407e-06 -0.0113480425405 0)
(-1.74222624825e-06 -0.0117551296632 0)
(-1.73070819238e-06 -0.0121294694612 0)
(-1.70476282492e-06 -0.0124690764353 0)
(-1.66416522787e-06 -0.0127712392967 0)
(-1.60930174662e-06 -0.0130327956904 0)
(-6.55501882738e-08 -0.000349066532296 0)
(-1.94723470167e-07 -0.00103805733826 0)
(-3.19960539166e-07 -0.00170918443768 0)
(-4.41112054672e-07 -0.00236318377737 0)
(-5.58024027792e-07 -0.00300085550495 0)
(-6.70518889742e-07 -0.00362273118903 0)
(-7.7838043228e-07 -0.0042293722195 0)
(-8.81345121854e-07 -0.00482121188762 0)
(-9.79092960203e-07 -0.00539847654865 0)
(-1.07124101631e-06 -0.00596139361794 0)
(-1.15734400059e-06 -0.00650977642629 0)
(-1.23688495394e-06 -0.00704325664122 0)
(-1.3092826586e-06 -0.00756120512514 0)
(-1.37389176969e-06 -0.0080626771494 0)
(-1.43001487985e-06 -0.00854662830527 0)
(-1.47692084195e-06 -0.00901152150241 0)
(-1.51385605031e-06 -0.00945586604094 0)
(-1.54008829861e-06 -0.0098776716985 0)
(-1.55492953312e-06 -0.0102750123005 0)
(-1.55779475156e-06 -0.0106455927817 0)
(-1.54830214544e-06 -0.0109866890888 0)
(-1.52629425294e-06 -0.0112960228921 0)
(-1.49166710984e-06 -0.011571819201 0)
(-1.4447913478e-06 -0.0118107719147 0)
(-5.77526085876e-08 -0.000309651241782 0)
(-1.71612550153e-07 -0.000921302509361 0)
(-2.82098049724e-07 -0.00151757352526 0)
(-3.89051545325e-07 -0.0020992949733 0)
(-4.92318554198e-07 -0.00266692970905 0)
(-5.91719210827e-07 -0.00322105141209 0)
(-6.87044953632e-07 -0.00376202519002 0)
(-7.78045842951e-07 -0.00429016992172 0)
(-8.64423966103e-07 -0.00480579581889 0)
(-9.45834049985e-07 -0.00530889086155 0)
(-1.02187375909e-06 -0.00579932603514 0)
(-1.09208865402e-06 -0.00627672954981 0)
(-1.15596963879e-06 -0.00674043097073 0)
(-1.21295930203e-06 -0.00718970947931 0)
(-1.2624637337e-06 -0.00762340080356 0)
(-1.30386127644e-06 -0.00804037444978 0)
(-1.33653109719e-06 -0.00843897535167 0)
(-1.35986486878e-06 -0.00881769518948 0)
(-1.37331531034e-06 -0.00917454912796 0)
(-1.37640858056e-06 -0.00950777005468 0)
(-1.36887912731e-06 -0.00981461993822 0)
(-1.35059275839e-06 -0.010093329305 0)
(-1.32151549929e-06 -0.0103419279691 0)
(-1.28196389977e-06 -0.0105580813966 0)
(-4.99897641474e-08 -0.000269749036931 0)
(-1.48593115176e-07 -0.000802689223639 0)
(-2.44359027918e-07 -0.0013229256129 0)
(-3.37136055506e-07 -0.00183082444988 0)
(-4.26770970408e-07 -0.00232699255413 0)
(-5.13094692347e-07 -0.00281172672475 0)
(-5.95910006709e-07 -0.00328541566911 0)
(-6.74988277367e-07 -0.00374832319815 0)
(-7.5006239554e-07 -0.00420058498915 0)
(-8.20823419632e-07 -0.00464224934185 0)
(-8.86919643158e-07 -0.00507311610077 0)
(-9.4795727574e-07 -0.00549275279211 0)
(-1.0034973576e-06 -0.00590067585276 0)
(-1.05306614128e-06 -0.00629608150142 0)
(-1.09616050658e-06 -0.00667810682171 0)
(-1.13226283684e-06 -0.00704554381392 0)
(-1.1608573585e-06 -0.00739712178482 0)
(-1.1814478956e-06 -0.00773132662486 0)
(-1.19359026714e-06 -0.00804658690598 0)
(-1.1969089808e-06 -0.00834116314518 0)
(-1.19120819645e-06 -0.00861287540169 0)
(-1.17638848829e-06 -0.0088598487092 0)
(-1.15243374022e-06 -0.00908073159631 0)
(-1.1196069722e-06 -0.00927297935597 0)
(-4.22619983328e-08 -0.000229266040092 0)
(-1.25661369081e-07 -0.000682651511377 0)
(-2.06737482582e-07 -0.00112552394844 0)
(-2.85347816074e-07 -0.0015584111796 0)
(-3.61352671053e-07 -0.00198162592039 0)
(-4.34595555231e-07 -0.00239554157384 0)
(-5.04901147701e-07 -0.00280039195905 0)
(-5.72066074683e-07 -0.00319639608827 0)
(-6.35857303221e-07 -0.00358368481244 0)
(-6.96007744879e-07 -0.0039622001428 0)
(-7.5221873881e-07 -0.00433172178733 0)
(-8.04153728943e-07 -0.00469192582526 0)
(-8.5144512928e-07 -0.00504230214264 0)
(-8.93695820439e-07 -0.00538221897681 0)
(-9.30488200797e-07 -0.00571085605735 0)
(-9.61396696294e-07 -0.00602721183063 0)
(-9.85996308285e-07 -0.00633016711632 0)
(-1.00388894078e-06 -0.00661842073886 0)
(-1.01470983527e-06 -0.00689060903179 0)
(-1.01816945436e-06 -0.00714524869625 0)
(-1.01411281175e-06 -0.00738044345897 0)
(-1.00247704441e-06 -0.00759468394487 0)
(-9.83232162737e-07 -0.00778651558949 0)
(-9.56599244308e-07 -0.007954217461 0)
(-3.45625964869e-08 -0.000188455697398 0)
(-1.02801837408e-07 -0.000561231218048 0)
(-1.69203021031e-07 -0.000925746626732 0)
(-2.33642944594e-07 -0.00128234647381 0)
(-2.95997970611e-07 -0.00163133788693 0)
(-3.56133512228e-07 -0.00197297437476 0)
(-4.13898501234e-07 -0.00230746659216 0)
(-4.69121259829e-07 -0.00263497274367 0)
(-5.21605807545e-07 -0.00295554969532 0)
(-5.71131180263e-07 -0.00326913929192 0)
(-6.17449247726e-07 -0.00357555580589 0)
(-6.60284614609e-07 -0.00387450626692 0)
(-6.99336361088e-07 -0.00416556745819 0)
(-7.34282075005e-07 -0.00444819523267 0)
(-7.64784421108e-07 -0.00472168921217 0)
(-7.90499430211e-07 -0.00498522781988 0)
(-8.11088391735e-07 -0.0052378464995 0)
(-8.26230253465e-07 -0.00547848186618 0)
(-8.35639474215e-07 -0.00570596769911 0)
(-8.3908117581e-07 -0.00591906741865 0)
(-8.36450946557e-07 -0.00611628057303 0)
(-8.27689973287e-07 -0.0062962574162 0)
(-8.12773991419e-07 -0.00645791539255 0)
(-7.91861598896e-07 -0.00659947733473 0)
(-2.68831615918e-08 -0.000147218534228 0)
(-7.99866271517e-08 -0.000438512972966 0)
(-1.31710145612e-07 -0.000723615236568 0)
(-1.81953402887e-07 -0.00100278501775 0)
(-2.30615297677e-07 -0.00127626166191 0)
(-2.77586647732e-07 -0.00154423194569 0)
(-3.22745831403e-07 -0.00180685647183 0)
(-3.65955786899e-07 -0.00206423946604 0)
(-4.07061367887e-07 -0.00231641282257 0)
(-4.45888285531e-07 -0.00256332466693 0)
(-4.82241616027e-07 -0.00280483001014 0)
(-5.15906074085e-07 -0.00304068851007 0)
(-5.46647319399e-07 -0.00327056389895 0)
(-5.74214971751e-07 -0.00349401033956 0)
(-5.9834767721e-07 -0.00371047160913 0)
(-6.18779462433e-07 -0.00391928523207 0)
(-6.35248667577e-07 -0.00411968331796 0)
(-6.47507412296e-07 -0.00431081314814 0)
(-6.55334923259e-07 -0.00449173491083 0)
(-6.58549985152e-07 -0.00466147212281 0)
(-6.57082127178e-07 -0.00481888453123 0)
(-6.50883267876e-07 -0.00496296036406 0)
(-6.39923716522e-07 -0.00509264642631 0)
(-6.24322594472e-07 -0.00520694355165 0)
(-1.92118127269e-08 -0.00010555908271 0)
(-5.71806042634e-08 -0.000314505068041 0)
(-9.41993252781e-08 -0.000519190596811 0)
(-1.30194103231e-07 -0.000719805388045 0)
(-1.65090239202e-07 -0.000916512610311 0)
(-1.98807320883e-07 -0.00110945235846 0)
(-2.31256548139e-07 -0.0012987267244 0)
(-2.6233828747e-07 -0.0014844037767 0)
(-2.91940199939e-07 -0.00166650388472 0)
(-3.19936381423e-07 -0.00184499033214 0)
(-3.46186514475e-07 -0.00201975473774 0)
(-3.70535888608e-07 -0.00219062525225 0)
(-3.92816350076e-07 -0.00235735138896 0)
(-4.12848498362e-07 -0.00251960839436 0)
(-4.30445115836e-07 -0.00267698373956 0)
(-4.45415521992e-07 -0.00282899424311 0)
(-4.57571630905e-07 -0.00297507086112 0)
(-4.66734831891e-07 -0.00311458643357 0)
(-4.72744678283e-07 -0.00324684239257 0)
(-4.75467937066e-07 -0.00337110696348 0)
(-4.74865336606e-07 -0.00348666605754 0)
(-4.70897753534e-07 -0.00359272625537 0)
(-4.63528713767e-07 -0.0036885507712 0)
(-4.52839212835e-07 -0.00377320489164 0)
(-1.1534594174e-08 -6.35194251776e-05 0)
(-3.43421880583e-08 -0.000189297759693 0)
(-5.66008526216e-08 -0.000312623584643 0)
(-7.82655577415e-08 -0.000433606629717 0)
(-9.92905056686e-08 -0.0005523475313 0)
(-1.19626797245e-07 -0.000668923229568 0)
(-1.39220416174e-07 -0.000783399404943 0)
(-1.58011048767e-07 -0.000895811842459 0)
(-1.75930797065e-07 -0.00100617527261 0)
(-1.92903719741e-07 -0.00111446274674 0)
(-2.08845085695e-07 -0.00122061404663 0)
(-2.23661587463e-07 -0.00132452160984 0)
(-2.37251804864e-07 -0.00142603598515 0)
(-2.49507447827e-07 -0.00152495388524 0)
(-2.60315258613e-07 -0.00162102810986 0)
(-2.69559533795e-07 -0.00171395561484 0)
(-2.77125663729e-07 -0.00180339266877 0)
(-2.82903759212e-07 -0.00188894115349 0)
(-2.86793457876e-07 -0.00197016765852 0)
(-2.88708161403e-07 -0.00204659095444 0)
(-2.8863685243e-07 -0.00211788447395 0)
(-2.86551459996e-07 -0.00218358220386 0)
(-2.82409968149e-07 -0.00224304604928 0)
(-2.76245370561e-07 -0.00229583533427 0)
(-3.83656610439e-09 -2.1149007929e-05 0)
(-1.14257854877e-08 -6.30435457178e-05 0)
(-1.88382549439e-08 -0.000104149281082 0)
(-2.60588756447e-08 -0.000144503301629 0)
(-3.30724235927e-08 -0.000184136863564 0)
(-3.98626211207e-08 -0.000223077546759 0)
(-4.64116283841e-08 -0.000261345687581 0)
(-5.26994833062e-08 -0.000298954278571 0)
(-5.87038096478e-08 -0.000335907382728 0)
(-6.43994861394e-08 -0.000372198015523 0)
(-6.97585509737e-08 -0.000407806052896 0)
(-7.47501408658e-08 -0.000442697244596 0)
(-7.93406790531e-08 -0.000476822002894 0)
(-8.34942154487e-08 -0.000510114077652 0)
(-8.71730127925e-08 -0.000542491300729 0)
(-9.03383660848e-08 -0.00057385337882 0)
(-9.29515926211e-08 -0.000604085034765 0)
(-9.49752301158e-08 -0.000633051810764 0)
(-9.63736111798e-08 -0.000660599522716 0)
(-9.71109817244e-08 -0.000686527413998 0)
(-9.7196141545e-08 -0.00071082993845 0)
(-9.66196231904e-08 -0.000733354105336 0)
(-9.53523899876e-08 -0.00075381052707 0)
(-9.34024251487e-08 -0.000772008606049 0)
(-1.65933304099e-07 -0.000774438100217 0)
(-4.91343941884e-07 -0.00229369482737 0)
(-8.0511265908e-07 -0.00375615370931 0)
(-1.10867417182e-06 -0.00516714454375 0)
(-1.40355804051e-06 -0.00653132265856 0)
(-1.69112715071e-06 -0.00785354243964 0)
(-1.97270258072e-06 -0.009137515719 0)
(-2.249468949e-06 -0.0103869724011 0)
(-2.52264393621e-06 -0.0116048874387 0)
(-2.79334982791e-06 -0.0127939207426 0)
(-3.06278777942e-06 -0.0139562064003 0)
(-3.33212194583e-06 -0.0150933862166 0)
(-3.6026437145e-06 -0.0162067508603 0)
(-3.87569846888e-06 -0.0172969324563 0)
(-4.15278986352e-06 -0.0183641431234 0)
(-4.43549263321e-06 -0.0194072954136 0)
(-4.72586577199e-06 -0.0204255566171 0)
(-5.0266671298e-06 -0.0214179052803 0)
(-5.3408224684e-06 -0.022381778083 0)
(-5.67197698933e-06 -0.0233124483829 0)
(-6.02469154885e-06 -0.0242046293214 0)
(-6.40495484548e-06 -0.0250503551802 0)
(-6.82006327172e-06 -0.0258395459773 0)
(-7.2777982161e-06 -0.0265561679355 0)
(-1.6656977709e-07 -0.000778416949653 0)
(-4.93289507656e-07 -0.00230518643503 0)
(-8.08215298952e-07 -0.00377488164126 0)
(-1.11280802593e-06 -0.00519238317337 0)
(-1.40858212314e-06 -0.0065627585668 0)
(-1.69693270513e-06 -0.0078904668273 0)
(-1.97915164072e-06 -0.00917964458421 0)
(-2.25645577297e-06 -0.010433782721 0)
(-2.53001442359e-06 -0.0116560940261 0)
(-2.80096611582e-06 -0.0128490921538 0)
(-3.07044675851e-06 -0.0140149850354 0)
(-3.33960945274e-06 -0.0151553537113 0)
(-3.60966073835e-06 -0.0162714251707 0)
(-3.88189812075e-06 -0.0173638831926 0)
(-4.1577810194e-06 -0.0184330758321 0)
(-4.43842348701e-06 -0.0194768740449 0)
(-4.72542856496e-06 -0.0204936410112 0)
(-5.0216260636e-06 -0.0214841669024 0)
(-5.32929191029e-06 -0.022445139307 0)
(-5.65061147532e-06 -0.023370639406 0)
(-5.98845459599e-06 -0.0242548648522 0)
(-6.34563644235e-06 -0.0250896542055 0)
(-6.72396117224e-06 -0.0258642995761 0)
(-7.11981373264e-06 -0.0265623819395 0)
(-1.67777806021e-07 -0.000785889734639 0)
(-4.96971891e-07 -0.00232774394303 0)
(-8.14100159457e-07 -0.00381120765433 0)
(-1.12064064226e-06 -0.00524137177707 0)
(-1.41813558927e-06 -0.0066233645165 0)
(-1.70797804103e-06 -0.0079618676136 0)
(-1.99147224971e-06 -0.00926100661531 0)
(-2.26981456952e-06 -0.0105244583476 0)
(-2.54416030773e-06 -0.0117553643349 0)
(-2.81559803519e-06 -0.0129563049546 0)
(-3.08520992738e-06 -0.0141293993274 0)
(-3.35404963038e-06 -0.0152761491661 0)
(-3.62319510868e-06 -0.0163976532051 0)
(-3.89373740655e-06 -0.0174942954349 0)
(-4.1668036263e-06 -0.0185660226871 0)
(-4.44341555495e-06 -0.0196114260941 0)
(-4.72465171054e-06 -0.0206288436167 0)
(-5.01182527015e-06 -0.021616289525 0)
(-5.30589321535e-06 -0.0225701536017 0)
(-5.60721085133e-06 -0.0234848819217 0)
(-5.9146768363e-06 -0.0243531226296 0)
(-6.22490733407e-06 -0.0251652037477 0)
(-6.52993062816e-06 -0.0259101643897 0)
(-6.80933907189e-06 -0.0265703440664 0)
(-1.69324594504e-07 -0.000795901274631 0)
(-5.01738980248e-07 -0.00235814249913 0)
(-8.21748459133e-07 -0.00386027032723 0)
(-1.13087223321e-06 -0.00530764872906 0)
(-1.43066462932e-06 -0.00670566875777 0)
(-1.72253256392e-06 -0.00805915654764 0)
(-2.00776627687e-06 -0.00937237521961 0)
(-2.28755003204e-06 -0.0106490681013 0)
(-2.56299048541e-06 -0.0118923812689 0)
(-2.83511870453e-06 -0.0131048873926 0)
(-3.10491035766e-06 -0.0142885776309 0)
(-3.37328147784e-06 -0.015444849355 0)
(-3.64109577748e-06 -0.0165745002877 0)
(-3.90914920461e-06 -0.0176776671522 0)
(-4.17824726557e-06 -0.0187542150972 0)
(-4.44875074796e-06 -0.0198023870505 0)
(-4.72081736378e-06 -0.0208196529722 0)
(-4.99416950103e-06 -0.0218027632426 0)
(-5.26747557276e-06 -0.0227468937558 0)
(-5.53801466741e-06 -0.0236464653956 0)
(-5.7994135366e-06 -0.0244923247448 0)
(-6.03972514623e-06 -0.0252720170876 0)
(-6.23882371117e-06 -0.025970922115 0)
(-6.36458689793e-06 -0.0265705126695 0)
(-1.69333843633e-07 -0.000796225342101 0)
(-5.01762536555e-07 -0.00235898094614 0)
(-8.21782371136e-07 -0.00386085222973 0)
(-1.13091565577e-06 -0.00530796437242 0)
(-1.43071815768e-06 -0.00670554195367 0)
(-1.72260324294e-06 -0.00805897973952 0)
(-2.00784810485e-06 -0.00937199277794 0)
(-2.28764284593e-06 -0.0106487939898 0)
(-2.56308461896e-06 -0.0118919376697 0)
(-2.83520881461e-06 -0.0131043947636 0)
(-3.10498780574e-06 -0.0142877802533 0)
(-3.37333883634e-06 -0.0154438453306 0)
(-3.64112449885e-06 -0.0165730569743 0)
(-3.90914395636e-06 -0.0176759924235 0)
(-4.1782085154e-06 -0.0187521614349 0)
(-4.44866712819e-06 -0.0198000109227 0)
(-4.7206876371e-06 -0.0208168051318 0)
(-4.9939966231e-06 -0.0217995481552 0)
(-5.26728727339e-06 -0.0227431925556 0)
(-5.53780462095e-06 -0.0236424952509 0)
(-5.79923411661e-06 -0.0244878266851 0)
(-6.03955975577e-06 -0.0252669186618 0)
(-6.23865977485e-06 -0.0259651916747 0)
(-6.36430358491e-06 -0.0265637217395 0)
(-1.67784573861e-07 -0.000786450489612 0)
(-4.96995687924e-07 -0.00232857166537 0)
(-8.14124856559e-07 -0.00381223945655 0)
(-1.12067809847e-06 -0.00524196157364 0)
(-1.41817597195e-06 -0.00662374628283 0)
(-1.70804009716e-06 -0.00796195572742 0)
(-1.99153616774e-06 -0.00926109437878 0)
(-2.26989461986e-06 -0.0105244635407 0)
(-2.54422940386e-06 -0.0117553378199 0)
(-2.81567335246e-06 -0.0129561668262 0)
(-3.0852643369e-06 -0.0141290962682 0)
(-3.3540965134e-06 -0.0152756347403 0)
(-3.62321069727e-06 -0.0163968336956 0)
(-3.89373033999e-06 -0.0174932240964 0)
(-4.16676197122e-06 -0.0185646414737 0)
(-4.44333717493e-06 -0.0196097699095 0)
(-4.72453651674e-06 -0.0206268330407 0)
(-5.01167002373e-06 -0.0216140098211 0)
(-5.30572709668e-06 -0.0225675062045 0)
(-5.60701499457e-06 -0.0234820432825 0)
(-5.91451106409e-06 -0.0243498508914 0)
(-6.2247416407e-06 -0.0251616142898 0)
(-6.52981857738e-06 -0.0259058617754 0)
(-6.80922087235e-06 -0.0265653067982 0)