/*--------------------------------*- C++ -*----------------------------------*\
| =========                 |                                                 |
| \\      /  F ield         | foam-extend: Open Source CFD                    |
|  \\    /   O peration     | Version:     3.2                                |
|   \\  /    A nd           | Web:         http://www.foam-extend.org         |
|    \\/     M anipulation  | For copyright notice see file Copyright         |
\*---------------------------------------------------------------------------*/
FoamFile
{
    version     2.0;
    format      ascii;
    class       volScalarField;
    location    "1";
    object      k;
}
// * * * * * * * * * * * * * * * * * * * * * * * * * * * * * * * * * * * * * //

dimensions      [0 2 -2 0 0 0 0];

internalField   nonuniform List<scalar> 
3200
(
0.051830959067
0.0516850057106
0.0514098977855
0.0510329206673
0.050584221622
0.0500907237462
0.0495731320202
0.0490453910373
0.0485153857386
0.0479859814068
0.0474559639237
0.0469207906203
0.0463732002979
0.0458038218661
0.0452020643066
0.0445576565279
0.0438633456647
0.0431196348982
0.0423421762043
0.0415707568864
0.04087431754
0.0403397934847
0.0400429074777
0.0400027151441
0.0525483525008
0.0523569070889
0.052002590669
0.0515294522125
0.0509829782117
0.0504008400793
0.0498096373401
0.0492255820865
0.0486567205661
0.0481052118644
0.0475691070063
0.0470436178792
0.0465220429194
0.0459965590828
0.0454591656197
0.0449031153876
0.044325168647
0.0437292787195
0.0431321701905
0.0425696319316
0.0420992499231
0.0417907629633
0.0417076514977
0.041855539466
0.0535770452652
0.0533130363296
0.0528347213333
0.0522145825722
0.051522211409
0.050810576603
0.0501134483222
0.049448742968
0.0488233617921
0.0482373223652
0.0476866292316
0.0471651079216
0.0466655961156
0.0461808051087
0.0457041453405
0.0452308480129
0.0447595640577
0.0442947936828
0.0438504658454
0.0434537591568
0.0431462936773
0.042977010122
0.0429869592681
0.0431747673421
0.0550238718181
0.0546443060563
0.0539738549703
0.0531332051904
0.0522287090437
0.05133372945
0.050489520406
0.0497138694485
0.0490101503569
0.0483740237122
0.0477975927585
0.0472717668286
0.0467876078238
0.0463371270354
0.0459138464206
0.0455134867623
0.0451348653317
0.0447811794924
0.0444619130364
0.0441950361784
0.0440078011527
0.0439324322112
0.043994164155
0.0441902507156
0.057026626378
0.0564611425568
0.055494662749
0.0543295215978
0.0531254011041
0.0519798555757
0.0509393701754
0.0500176062749
0.0492105857568
0.0485065406899
0.0478913285807
0.047351126207
0.0468737240441
0.0464490935149
0.0460695790362
0.0457300642944
0.045428221094
0.0451648645027
0.0449447182052
0.0447776952773
0.0446799844313
0.0446722745445
0.0447715297355
0.0449748293924
0.0597674018426
0.0588931395492
0.0574694950972
0.0558358460354
0.0542220167561
0.0527474643329
0.0514562989231
0.0503508184816
0.0494142209643
0.0486234748258
0.0479555254132
0.0473898891266
0.0469095701274
0.0465011774339
0.0461546738283
0.0458630033252
0.0456217303655
0.045428744121
0.0452843160034
0.0451919299205
0.0451598383404
0.0452012483439
0.0453296275545
0.0455429288935
0.0635123645864
0.0620902884581
0.0599520427434
0.0576561627912
0.0555036758612
0.0536171724828
0.0520215165979
0.050696412051
0.0496054100734
0.0487100683335
0.0479757965414
0.0473736609507
0.0468805175602
0.0464784557398
0.0461540166347
0.0458973245414
0.0457011909889
0.0455603596536
0.0454711783608
0.0454322544817
0.0454464171897
0.0455221187376
0.0456715421905
0.0458944454167
0.0687279740225
0.0662212828083
0.062946203998
0.0597426905203
0.0569183574081
0.0545458524881
0.0526015427482
0.0510281632449
0.0497627086349
0.0487478255681
0.0479353974802
0.0472867106145
0.0467714308741
0.0463662503135
0.0460534982395
0.0458198325437
0.0456549275548
0.0455503894044
0.0454992646635
0.0454965996562
0.0455416222553
0.045640187379
0.0458040006688
0.0460346956966
0.0763921209905
0.0714103668496
0.0663344324118
0.061964076755
0.0583671549963
0.0554648937728
0.0531485467879
0.0513112723952
0.0498592465105
0.0487146909338
0.0478152348769
0.0471118387948
0.0465664302822
0.0461497616836
0.045839461401
0.0456183281046
0.0454727351944
0.0453913920092
0.0453644936842
0.0453846726946
0.0454492303874
0.0455630524372
0.0457371809183
0.0459752242887
0.0887641735067
0.0772851381778
0.069707336433
0.0640723332072
0.0597064634678
0.0562869074602
0.0536052594568
0.0515052117016
0.0498642191967
0.0485857638842
0.0475941612018
0.04683041052
0.0462487282312
0.0458137526733
0.0454981891465
0.0452809671271
0.0451450969658
0.0450764349592
0.0450631712375
0.0450965858441
0.0451737220928
0.0452985864084
0.0454818011331
0.0457284979634
0.0921797638363
0.0806329393608
0.0721522469417
0.0657366823357
0.0607829189104
0.0569248441581
0.053914465208
0.0515683688239
0.0497451534062
0.0483343697297
0.0472494342813
0.0464224978587
0.0458005438108
0.0453422916868
0.0450157670287
0.0447957050662
0.0446619426255
0.0445980736866
0.0445909248999
0.0446319668714
0.0447177337429
0.0448522706081
0.0450458987649
0.0453043843407
0.0932974539258
0.0823379948167
0.073673676211
0.0668671642845
0.0615190713733
0.0573191175237
0.0540292403315
0.0514624624183
0.0494699784826
0.047933082357
0.0467571874154
0.0458670078881
0.045203204634
0.0447189354076
0.0443773519773
0.0441494384654
0.0440122206839
0.0439476488013
0.0439425526821
0.0439877087741
0.0440803969002
0.0442254131701
0.0444328492613
0.0447079960158
0.0937299860106
0.0831853513458
0.0745263019815
0.0675204841739
0.0619053097644
0.0574398602273
0.0539152303748
0.0511540192539
0.0490078786342
0.0473541435643
0.0460926572192
0.0451421185237
0.0444372178431
0.0439258832468
0.0435669043376
0.0433278298812
0.0431837757293
0.0431158474162
0.0431096901233
0.0431569386941
0.0432563709722
0.0434141275431
0.0436402912822
0.0439386618821
0.0939180260541
0.0835848751956
0.0749270610267
0.0677804600967
0.0619584778425
0.0572732266355
0.0535457864226
0.0506125226195
0.048328609287
0.0465695059882
0.0452304585704
0.0442247107818
0.0434815392937
0.0429440374692
0.0425669787423
0.0423157052003
0.0421633972953
0.0420895792387
0.0420802774269
0.0421285294416
0.0422352568967
0.0424086686878
0.0426593752182
0.0429890997526
0.0939982493478
0.0837262707307
0.0750070590102
0.0677088566449
0.0616913726704
0.056804751488
0.0528939504773
0.0498066380928
0.0474007262353
0.04554939374
0.0441431641394
0.0430898696235
0.0423135288865
0.041752668648
0.0413593836984
0.0410960673979
0.0409339874026
0.04085245128
0.0408383627297
0.0408866977247
0.0410011595609
0.0411928879593
0.041473998291
0.0418442688659
0.0940177607675
0.0836898643836
0.0748263035028
0.0673294199039
0.0610972811389
0.0560088525228
0.0519251452196
0.0486993868493
0.0461883355297
0.0442605254297
0.0428005323853
0.0417102154969
0.0409082619198
0.0403297733371
0.0399229918757
0.039647960385
0.0394751546441
0.0393842247345
0.039363518563
0.0394104971033
0.0395322539541
0.0397437788139
0.040060091805
0.0404800912584
0.0939931040713
0.0834991619231
0.0743908890195
0.0666241503655
0.0601395374667
0.0548390116019
0.050590310942
0.0472435953165
0.0446481722959
0.0426640465633
0.0411677979722
0.0400544380465
0.0392379965028
0.0386488078231
0.0382320721439
0.0379463969207
0.037762064119
0.0376597178802
0.0376298098352
0.0376729000169
0.0378000514919
0.0380309200493
0.038385029444
0.0388626666353
0.0939285005965
0.083139572043
0.0736563497178
0.0655254778074
0.05874032508
0.0532177471699
0.0488182342722
0.0453764096455
0.0427255676621
0.0407122944181
0.0392028492273
0.038085258525
0.0372677340419
0.0366765423458
0.0362546985251
0.0359599874445
0.0357631653836
0.0356466025488
0.0356036523563
0.0356387748145
0.0357676539551
0.0360151819916
0.0364066254687
0.0369467251638
0.0938223228761
0.0825535746111
0.0725096745957
0.0638944419977
0.0567618355686
0.0510226638201
0.0465056814126
0.0430120081053
0.0403485121212
0.038343469989
0.0368513759507
0.0357528675658
0.0349507696609
0.0343684993968
0.0339476759451
0.0336459999694
0.0334353952091
0.0333007056212
0.0332391269274
0.0332601953894
0.0333852934226
0.0336450563523
0.0340705843327
0.0346730252909
0.0936710470682
0.0816034585973
0.0707126385981
0.061471190221
0.0539717918051
0.0480639661402
0.0435018191432
0.040029208322
0.0374163992334
0.0354705361402
0.0340351239826
0.0329842452094
0.0322177132292
0.0316575981345
0.0312453136473
0.0309393351974
0.0307133938777
0.0305554130281
0.0304673426359
0.0304654930567
0.0305791188776
0.0308461703801
0.0313023198465
0.0319625055618
0.093474775858
0.0799446029627
0.0677523173329
0.0577673245989
0.0499770369349
0.0440416112227
0.0395755871267
0.0362423501793
0.0337717696584
0.0319531734977
0.0306234930434
0.0296550112563
0.0289480679239
0.0284259392447
0.0280315378331
0.027725108543
0.0274826861204
0.0272953724247
0.0271701424524
0.0271319938285
0.0272224581435
0.0274922155748
0.0279805536567
0.0286953424488
0.0932332607408
0.0765524509121
0.0624247118576
0.0518135840558
0.0440687462804
0.0384306339229
0.034315027538
0.0313057394825
0.0291073559353
0.0275064682562
0.0263448760218
0.0255018127853
0.024883991964
0.0244198646061
0.0240563435194
0.0237567518008
0.0234997063444
0.0232784097007
0.0231035011924
0.0230085018216
0.0230531676642
0.0233145067373
0.0238423245652
0.0246212730328
0.092679417997
0.0675288426657
0.0514585112882
0.0413488392678
0.0346235124114
0.0299603323268
0.0266473731851
0.0242640780322
0.0225415362573
0.0212969383772
0.0203984428858
0.019746674266
0.0192645328347
0.0188924323207
0.018585756933
0.018313447571
0.0180568503731
0.017809560077
0.0175802912255
0.01740307926
0.0173599074729
0.0175806402672
0.0181434755363
0.0189773162115
0.0850251450597
0.0340746589954
0.0230927558201
0.0182399304804
0.0152379665048
0.0131963109067
0.0117555954459
0.0107217108564
0.00997580441665
0.00943971625819
0.00905529190438
0.00877784311532
0.00857219319964
0.00841073241609
0.00827264314544
0.00814312265782
0.00801316977293
0.00787886623615
0.00774427110136
0.00763092659001
0.00759712742877
0.00772682987618
0.00805030124498
0.00850030687078
0.0507529216639
0.0506767086241
0.0505267455189
0.0503088483866
0.0500312459397
0.049703194317
0.049333641693
0.0489302057379
0.0484984138517
0.0480412136654
0.0475586148579
0.0470474157254
0.0465009431247
0.0459087887143
0.0452565635887
0.0445257035585
0.0436935320478
0.0427340246722
0.0416196243142
0.0403242788062
0.0388269589088
0.0371116048726
0.0351508578743
0.0328408025635
0.0508416050324
0.0507607814905
0.0506016673187
0.0503713264655
0.050079461912
0.0497367096806
0.0493531110449
0.0489370233241
0.0484943978526
0.048028357372
0.0475389229341
0.0470228201569
0.0464733066488
0.0458800073094
0.0452288182819
0.0445019448764
0.043678338545
0.0427351229464
0.0416505486119
0.0404088811771
0.0390067972944
0.0374577151627
0.0357799128623
0.0339299393496
0.0510320806069
0.0509402237437
0.0507601114087
0.050501902485
0.0501787694691
0.049804439091
0.0493912711841
0.0489490861984
0.0484845728984
0.0480010583821
0.0474984374131
0.0469731650348
0.0464182624046
0.0458233543059
0.0451748495872
0.0444564382082
0.0436503040349
0.0427398116027
0.0417144741772
0.0405778244512
0.0393571481664
0.0381088945717
0.0368931103496
0.035696489266
0.0513481736527
0.0512348647834
0.0510162502491
0.050708796623
0.050332261447
0.0499057897067
0.0494454142342
0.0489629548975
0.048465818445
0.0479572142829
0.0474364737322
0.0468993617875
0.0463383600278
0.045742999851
0.0451004613323
0.0443967630509
0.0436190852541
0.0427601350182
0.0418252791671
0.0408420676898
0.0398678841769
0.0389844654982
0.0382459698906
0.037607673276
0.0513639048291
0.051249773217
0.0510297471762
0.0507205314315
0.0503420927986
0.0499137461698
0.0494516757226
0.0489677970858
0.0484695534294
0.0479601411468
0.0474388400247
0.046901357152
0.0463401261493
0.0457446366753
0.0451020371779
0.0443983449952
0.0436207386804
0.0427619213466
0.0418272459645
0.0408442255636
0.039870205758
0.0389868774137
0.0382483173994
0.0376097325899
0.0510420760919
0.0509497280991
0.0507687784603
0.0505095280389
0.0501852671538
0.0498098048839
0.0493955864907
0.0489524968361
0.0484872614691
0.0480032089977
0.0475002088577
0.0469746831913
0.0464196242685
0.0458246313712
0.0451760914568
0.0444576956614
0.0436516302289
0.0427412602429
0.0417160946951
0.0405796449834
0.0393591731212
0.0381110795412
0.0368953011577
0.0356983945745
0.0508471018654
0.050766002355
0.0506064399038
0.0503755554086
0.0500831081314
0.0497397658492
0.0493556089
0.0489390303229
0.0484960064186
0.0480296642135
0.0475400148697
0.0470237680185
0.0464741663358
0.0458808210313
0.0452296167825
0.0445027588223
0.0436792023317
0.0427360723082
0.0416516207015
0.040410106299
0.0390081995416
0.0374592941951
0.0357815897418
0.0339315081195
0.050754673364
0.0506783669582
0.0505282608497
0.0503101954699
0.0500324146513
0.0497041818676
0.0493344561805
0.0489308665013
0.0484989483915
0.0480416517446
0.0475589838119
0.0470477383518
0.0465012375219
0.0459090688293
0.0452568397651
0.0445259860479
0.0436938326647
0.042734356022
0.041620000146
0.0403247121921
0.0388274626986
0.037112186215
0.0351515068665
0.0328414601458
0.085025688515
0.0340949094909
0.0231324596909
0.0182743768143
0.0152582498665
0.013205337968
0.0117584068445
0.0107217878037
0.00997499389947
0.00943884814133
0.00905470851824
0.0087776628789
0.00857238359599
0.00841121629582
0.00827334640492
0.00814399533972
0.00801419374661
0.00788003158054
0.00774559009485
0.00763239993635
0.00759874423091
0.00772850613312
0.00805184790872
0.00850156552725
0.0926805173448
0.0675412679673
0.0514895120995
0.0413872254135
0.0346548455581
0.0299789963266
0.0266555166719
0.0242660938895
0.0225409036542
0.0212956526095
0.0203974376266
0.019746294679
0.0192648173783
0.018893297478
0.0185870939063
0.0183151766956
0.0180589397943
0.0178119976092
0.0175830882872
0.0174061745764
0.0173632852668
0.0175842238483
0.0181469358565
0.0189803028684
0.0932334174557
0.0765586734702
0.0624432103097
0.0518402384104
0.0440938857801
0.0384479461938
0.0343239357824
0.0313087702742
0.0291073588987
0.0275054400484
0.0263439118522
0.025501384354
0.0248842191496
0.0244207126294
0.024057731929
0.0237586094182
0.0235019912499
0.0232811020157
0.0231065821145
0.0230119481991
0.0230569209905
0.023318407009
0.0238461009219
0.0246246165032
0.0934741613531
0.0799473011475
0.0677628099949
0.0577842481788
0.0499946083753
0.0440548973005
0.0395831345006
0.0362453090975
0.0337720729628
0.03195242525
0.0306226851122
0.0296546245222
0.0289482672431
0.0284267294847
0.0280328710417
0.0277269336603
0.0274849612929
0.0272980676398
0.0271732226022
0.0271355023388
0.027226314092
0.0274961758895
0.0279843823501
0.0286987768241
0.0936701762783
0.0816044865912
0.070718692631
0.0614818194382
0.0539835621798
0.0480734649278
0.0435076181341
0.0400317235336
0.037416838639
0.0354700679879
0.0340345329889
0.0329839684972
0.0322179272043
0.0316583388741
0.0312465667902
0.030941071684
0.0307155843624
0.030558035615
0.0304703710838
0.030468953636
0.0305829178446
0.0308500839918
0.0313061128418
0.031965934204
0.0938215977132
0.0825541287511
0.0725136168767
0.0639015691283
0.0567700211714
0.0510296147421
0.0465102394216
0.0430142478576
0.0403491603831
0.0383433400893
0.0368510761153
0.0357527652047
0.0349510424383
0.0343692135376
0.0339488465344
0.0336476247345
0.0334374684011
0.033303219516
0.0332420708429
0.0332635543622
0.0333889715305
0.0336488669861
0.0340743028213
0.0346764123184
0.0939281751413
0.0831405043748
0.0736598517714
0.0655313115586
0.0587470185291
0.0532236784433
0.048822477925
0.0453788810488
0.0427267025575
0.040712671128
0.0392029574782
0.0380854092016
0.0372681177146
0.0366772560422
0.0362557919655
0.0359614915134
0.0357650998216
0.0356489774167
0.0356064674211
0.0356419990542
0.0357711964762
0.0360188771404
0.0364102577486
0.0369500718363
0.0939933507061
0.0835011636989
0.0743952979543
0.0666305089736
0.0601465870861
0.0548454286436
0.0505952821435
0.0472469481991
0.0446501808539
0.0426651596841
0.0411684441789
0.0400549373806
0.039238549833
0.0386495555826
0.0382331053398
0.0379477803921
0.037763846849
0.037661932769
0.037632466657
0.0376759702711
0.0378034489002
0.0380344900756
0.0383885714917
0.0388659758479
0.0940187403995
0.0836935872323
0.0748328174683
0.0673378728023
0.0611062938351
0.0560171115752
0.0519318311074
0.0487042688493
0.0461916164198
0.0442626134347
0.0428018587962
0.0417111407538
0.0409090488517
0.0403305962683
0.0399239891082
0.0396492346956
0.0394767845513
0.0393862667137
0.0393659981423
0.0394133959127
0.0395354920125
0.0397472105351
0.0400635306668
0.0404833505627
0.094000163564
0.0837324265537
0.0750168551366
0.0677208409403
0.0617037690083
0.0568160407595
0.052903219214
0.0498136213808
0.0474056305076
0.0455526654586
0.0441452954956
0.0430912957323
0.0423145879866
0.0417536063122
0.0413603730645
0.0410972499999
0.0409354712914
0.0408543148903
0.0408406512168
0.0408894062595
0.041004217359
0.0411961591037
0.0414773104734
0.0418474530492
0.0939211512864
0.0835943021163
0.0749413652202
0.0677973321722
0.0619755095204
0.0572885464797
0.0535583450429
0.0506220591576
0.0483354020393
0.04657411163
0.0452334815081
0.0442266912892
0.0434829050299
0.0429451074495
0.0425679862951
0.0423168156825
0.0421647460623
0.042091266779
0.0420823658631
0.0421310298755
0.0422381095681
0.0424117492858
0.0426625326522
0.0429921773227
0.0937347219388
0.0831990718187
0.0745463993362
0.0675434796304
0.0619279937196
0.0574599320982
0.0539315480729
0.0511663822763
0.0490167073516
0.0473601444287
0.0460966056406
0.0451446765255
0.0444389111324
0.043927104467
0.0435679389483
0.043328888937
0.0431850063119
0.0431173678948
0.0431115779767
0.0431592170789
0.0432589944435
0.0434169913895
0.043643263327
0.0439416002876
0.0933044849668
0.0823573524887
0.0737009048775
0.0668972632229
0.0615480147327
0.0573442870536
0.0540494602307
0.0514776755257
0.0494808128617
0.0479404563886
0.0467620356344
0.0458701255532
0.0452052286132
0.0447203263325
0.0443784400983
0.0441504627219
0.0440133564895
0.0439490203064
0.043944246243
0.0439897590702
0.0440827761159
0.0442280387194
0.0444356083061
0.0447107648151
0.0921906713442
0.0806599455673
0.0721878607246
0.0657744892836
0.060818243742
0.0569549504308
0.0539383174286
0.0515861540432
0.0497577572515
0.0483429362501
0.0472550720885
0.0464261330276
0.0458028835985
0.0453438629207
0.0450169340904
0.0447967272827
0.0446630064752
0.0445993156758
0.0445924381708
0.0446337936808
0.0447198630493
0.0448546432821
0.0450484242612
0.0453069578189
0.0887838646033
0.077322933154
0.0697525066988
0.0641177823271
0.0597475552648
0.0563211827446
0.0536320249388
0.0515249824118
0.0498781570937
0.0485952247624
0.0476004030665
0.0468344587632
0.0462513531677
0.0458155069015
0.045499455287
0.0452820212929
0.0451461272746
0.0450775805224
0.0450645277008
0.0450982044121
0.045175607682
0.0453007038768
0.0454840825456
0.045730858727
0.076439168808
0.071463208917
0.0663892426872
0.0620159644518
0.0584125246731
0.0555019585747
0.0531771001342
0.0513321837078
0.049873925822
0.0487246561494
0.0478218416037
0.0471161665127
0.0465692760229
0.0461516870102
0.0458408518244
0.0456194475795
0.0454737724624
0.0453924825305
0.0453657322155
0.0453861137718
0.045450894617
0.0455649271601
0.0457392229028
0.0459773701172
0.068791291409
0.0662849486233
0.0630075567498
0.0597982948968
0.0569656909034
0.0545838578821
0.0526304912221
0.0510492218197
0.0497774565822
0.0487578621814
0.0479421059137
0.0472911695878
0.0467744248826
0.0463683246963
0.0460550217303
0.0458210527634
0.045656016953
0.045551473785
0.0455004370156
0.0454979149612
0.0455431089597
0.0456418532777
0.0458058286363
0.0460366456863
0.0635824013935
0.0621582522748
0.0600152321489
0.0577119202487
0.0555502650367
0.053654107231
0.0520494182798
0.0507166248636
0.0496195700217
0.0487197589145
0.0479823522891
0.0473781050883
0.0468835847224
0.0464806511359
0.0461556769135
0.0458986713936
0.0457023765239
0.0455614962122
0.0454723485266
0.0454335126459
0.0454477960881
0.0455236378396
0.0456732080807
0.0458962396471
0.0598364423189
0.0589592029037
0.057529844117
0.0558882876258
0.0542653251968
0.0527815151626
0.0514818960219
0.0503693412891
0.0494272427887
0.048632469489
0.0479617113493
0.0473941877808
0.0469126377052
0.0465034618302
0.0461564676658
0.0458644950772
0.0456230497657
0.0454299886443
0.0452855570892
0.0451932153398
0.0451611997947
0.0452027114978
0.0453312140857
0.0455446385312
0.0570892350509
0.056520680072
0.0555485733147
0.0543759789217
0.053163515037
0.0520096921451
0.0509617659481
0.0500338496777
0.0492220862608
0.0485145909223
0.0478969823021
0.0473551734471
0.0468767261836
0.0464514293018
0.0460714907133
0.0457317057118
0.0454297005964
0.0451662655626
0.0449461014069
0.0447790987165
0.0446814342336
0.0446737955089
0.0447731463085
0.0449765414729
0.055076939685
0.0546946177662
0.0540192110007
0.0531721300601
0.0522605546173
0.0513586389051
0.050508255681
0.0497275374629
0.0490199333824
0.0483809923207
0.0478026123928
0.0472754853333
0.0467904840495
0.0463394668018
0.0459158425376
0.045515262281
0.0451365106273
0.0447827678116
0.0444634947203
0.0441966387696
0.0440094412478
0.0439341259302
0.0439959269873
0.0441920709586
0.0536194524011
0.0533531751403
0.0528708315278
0.0522455345409
0.0515475434009
0.0508304425925
0.0501284731119
0.0494598080328
0.0488313992822
0.0482431710204
0.0476909675768
0.0471684430553
0.0466682861065
0.0461830883797
0.0457061707316
0.0452327140315
0.0447613513741
0.0442965681036
0.0438522695202
0.0434556110224
0.0431481971589
0.0429789640391
0.0429889625786
0.0431768023686
0.0525804545725
0.0523872597752
0.052029880786
0.0515528679989
0.0510022046245
0.0504160059286
0.0498212094136
0.0492342145573
0.0486631047604
0.0481099730503
0.0475727523289
0.0470465255694
0.046524482121
0.0459987089545
0.0454611400156
0.044904998454
0.0443270352209
0.0437311906392
0.043134167064
0.042571726246
0.0421014282424
0.0417929990011
0.0417099233234
0.0418578282813
0.0518540170754
0.0517067946536
0.051429501872
0.0510497927859
0.0505981569049
0.0501018100601
0.0495816896163
0.0490518727012
0.0485202750282
0.0479897229463
0.0474589178449
0.0469232263703
0.0463753133834
0.0458057440146
0.0452038826775
0.0445594468534
0.043865178871
0.0431215723964
0.0423442618736
0.0415729966707
0.0408766814392
0.0403422247724
0.0400453264067
0.040005058262
0.00897605501623
0.00955846548171
0.0105986065077
0.0118858401566
0.0198250790492
0.0206926722318
0.022045784078
0.0229086265891
0.0254320961161
0.026293212964
0.0272386799484
0.0278793619205
0.0294226154443
0.0301684660378
0.0308866181564
0.0314942418303
0.0325987585935
0.0331964019292
0.0338306389987
0.0343315808919
0.0352077612727
0.0356639145894
0.0362258691502
0.0365751878053
0.0373839807789
0.0377272397712
0.0381959215389
0.0384072517859
0.0392181544159
0.039478150387
0.0398501378103
0.0399551698169
0.040772345878
0.0409747039634
0.0412598761955
0.0412861489494
0.0420896495334
0.0422550060553
0.0424604422792
0.0424292045317
0.0432018565848
0.0433405222316
0.0434785579086
0.0434082816231
0.0441316585458
0.0442538714498
0.0443359330301
0.0442370677353
0.0448923637896
0.0450071185646
0.0450445987132
0.0449240854246
0.0454900261996
0.045605560362
0.0456099397238
0.0454735156001
0.0459250982214
0.0460504505161
0.0460337970152
0.0458860033774
0.0461931098956
0.046339651491
0.0463157758081
0.0461596311041
0.0462851585079
0.0464679491758
0.046454053336
0.0462902047161
0.0461886950878
0.0464269318521
0.0464450584775
0.0462711611858
0.045890611861
0.0462057908139
0.0462821881203
0.0460931128449
0.0453848104698
0.0457965009419
0.0459550718776
0.0457425649379
0.0446765372507
0.0452063959198
0.045452626739
0.0451982007892
0.0437640654616
0.0444702085559
0.0447814453738
0.0444193237294
0.042558846264
0.0435763871869
0.0439899427831
0.0433105341398
0.0407733782318
0.0421117402423
0.0428944259765
0.0416103960204
0.0142510937995
0.0140392263436
0.0139709525421
0.0148076841025
0.0286864715054
0.0292314306847
0.0292851371207
0.0295737287652
0.0347625106296
0.0359086491302
0.0359482618612
0.0355114235158
0.0381427870304
0.0397870474322
0.0400420200401
0.038990320037
0.0362710786611
0.0330356264405
0.027264906961
0.0136548643047
0.0339382411244
0.0307551588547
0.0252033413966
0.0122537870846
0.0316242196245
0.0283220014563
0.0227313452298
0.010769945796
0.0300807961088
0.0266097180432
0.0208997473307
0.00963422197372
0.0300813407936
0.0266100556005
0.0208998564712
0.00963463970909
0.0316253661488
0.0283226015439
0.0227312883134
0.010770496049
0.0339395445734
0.0307558934414
0.0252035020854
0.0122545739387
0.0362725840421
0.033036885811
0.0272662109509
0.0136566517497
0.0381449846548
0.0347643842551
0.028689378045
0.0142560411003
0.039788747077
0.035911386142
0.0292358189867
0.014043575849
0.0400461972785
0.035952279198
0.0292888909825
0.0139720830422
0.038993611542
0.0355145435778
0.0295762116106
0.0148074807398
0.0416135758848
0.0428981053319
0.0421136152323
0.0407759189597
0.0433132949909
0.0439925070954
0.0435785651953
0.0425611107855
0.0444217908533
0.0447836395939
0.0444722480027
0.0437660771861
0.0452004984847
0.0454547504023
0.0452084014016
0.0446783840937
0.0457447940663
0.0459572059389
0.0457985244348
0.0453866062511
0.0460953260631
0.0462843678327
0.0462078681998
0.0458924425881
0.0462733589004
0.0464472938173
0.0464290926885
0.0461906246326
0.0462923668625
0.046456332348
0.0464702063378
0.0462872297696
0.0461617390164
0.0463180753633
0.0463420048306
0.0461953530577
0.0458880442079
0.0460360920602
0.0460528905955
0.0459275176785
0.0454754818937
0.0456122105959
0.0456080673796
0.0454926067581
0.0449259711926
0.0450468311695
0.0450096686096
0.0448950758569
0.044238867646
0.0443381189816
0.0442564423554
0.0441344716158
0.0434099816241
0.0434806892603
0.0433431009254
0.0432047436446
0.0424308037605
0.0424625039491
0.0422575611389
0.042092578505
0.0412876334904
0.0412618471457
0.0409772098967
0.0407752846108
0.0399565145848
0.039851984174
0.0394805707699
0.039221075121
0.0384084458101
0.0381976427442
0.0377295672566
0.0373868692315
0.0365762514618
0.0362274812652
0.0356661586481
0.035210630424
0.0343325197962
0.0338321423127
0.033198575205
0.032601629466
0.0314950116889
0.0308879598372
0.0301705388969
0.0294254485241
0.0278798212936
0.0272397112104
0.0262950587492
0.0254347613625
0.0229086644205
0.0220463295706
0.0206940071973
0.0198273063285
0.0118854214303
0.0105982985777
0.0095587739447
0.0089768903381
0.00881188530653
0.00885759797473
0.00981537556637
0.0117356103698
0.0198941851212
0.0199037286213
0.0211567927139
0.0225356308884
0.0257176818245
0.025868984674
0.0267592987729
0.0277488731916
0.0297676798378
0.0299196195278
0.0305667515174
0.0313499760635
0.0329122383287
0.0330182425898
0.0334900701899
0.0341036865029
0.0354686689987
0.0355199412686
0.0358583355386
0.0363332782929
0.0375933533293
0.0375953897182
0.0378314493738
0.0381969804434
0.0393770278938
0.0393406586239
0.0394990293387
0.0397785592768
0.0408777547422
0.040815670615
0.0409174587975
0.0411341044106
0.0421348446218
0.042060051884
0.0421233028512
0.0422957693189
0.0431755770482
0.043100824325
0.0431411620567
0.0432847449219
0.0440186604023
0.0439563956278
0.0439877219376
0.0441151097226
0.0446760954645
0.0446386484689
0.0446738285453
0.0447961454503
0.0451542422711
0.0451540744198
0.0452054664519
0.0453328809438
0.0454545205581
0.0455044742615
0.0455843489418
0.0457265710899
0.0455737412904
0.0456873324137
0.0458082868577
0.0459751398178
0.0455039379467
0.0456957650536
0.0458712700354
0.0460733782073
0.0452316451292
0.0455179222376
0.0457630980813
0.0460127811762
0.0447363267598
0.0451355920707
0.0454681669191
0.0457806671587
0.0439890164355
0.0445216157205
0.0449625813246
0.0453577670987
0.0429486131471
0.043633562486
0.0442079321038
0.0447125270998
0.0415568993691
0.04240471584
0.0431401509982
0.0437881394566
0.0397403978526
0.0407333515058
0.0416503217884
0.0424749160539
0.0374227055024
0.0384606374602
0.039545544249
0.0405527543166
0.0126217346782
0.0136967000679
0.0147005542956
0.015327037666
0.0257228702583
0.0270488233649
0.028328845796
0.0292700348388
0.0312223598582
0.0324816516664
0.0337430028481
0.0347859440788
0.0346315556233
0.0357496382883
0.036940683737
0.0380093074403
0.0334906151452
0.0300207675847
0.0244797351795
0.0117278398662
0.0325599789707
0.0290607094711
0.0235358774729
0.0111695984998
0.0319397556861
0.0284228662042
0.0229242912324
0.0108248789764
0.0316313977536
0.0281074581136
0.022626162109
0.0106590857799
0.0316315041732
0.028107592798
0.0226263326543
0.0106592079869
0.0319400866276
0.0284232812364
0.0229248136494
0.0108252423305
0.0325605791499
0.0290614509776
0.0235368178132
0.0111702619778
0.0334914968989
0.0300218532798
0.0244811195247
0.0117288788427
0.034632569264
0.0312236724512
0.0257245037022
0.0126233027722
0.0357509723359
0.0324832628419
0.0270506576628
0.0136982749267
0.0369424566846
0.033744962263
0.0283308178885
0.0147016167854
0.0380116704243
0.0347883281001
0.0292721183977
0.0153274812478
0.0405550106603
0.0395471614512
0.0384618188414
0.0374236253354
0.0424769764802
0.0416518097189
0.0407344518096
0.0397413764913
0.0437900416457
0.0431415353941
0.0424057337889
0.0415580508786
0.0447143754817
0.0442093817668
0.0436349265982
0.0429503864933
0.0453596696608
0.0449642881977
0.0445235979193
0.0439910753672
0.0457826361814
0.04547003227
0.0451376031668
0.0447377342856
0.0460147410594
0.0457648862364
0.0455195185409
0.0452325147593
0.0460752681118
0.0458729064866
0.045697078351
0.0455047449922
0.0459769408557
0.0458097980441
0.0456885167894
0.0455745674815
0.0457282817424
0.0455857650719
0.0455055925173
0.0454553600975
0.0453345019565
0.0452067995659
0.0451551315529
0.0451550551015
0.0447976760507
0.0446750791764
0.0446396311322
0.044676838415
0.0441165472648
0.0439888905725
0.0439573055321
0.0440193328724
0.0432860834678
0.043142249134
0.0431016717908
0.0431762044867
0.0422970048059
0.04212430627
0.0420608391901
0.0421354354704
0.041135231746
0.040918374092
0.0408163933625
0.0408783010916
0.0397795653601
0.0394998492691
0.0393413105152
0.0393775204168
0.0381978525678
0.0378321644822
0.0375959647584
0.0375937843816