/*--------------------------------*- C++ -*----------------------------------*\
| =========                 |                                                 |
| \\      /  F ield         | foam-extend: Open Source CFD                    |
|  \\    /   O peration     | Version:     3.2                                |
|   \\  /    A nd           | Web:         http://www.foam-extend.org         |
|    \\/     M anipulation  | For copyright notice see file Copyright         |
\*---------------------------------------------------------------------------*/
FoamFile
{
    version     2.0;
    format      ascii;
    class       surfaceScalarField;
    location    "1";
    object      meshPhi;
}
// * * * * * * * * * * * * * * * * * * * * * * * * * * * * * * * * * * * * * //

dimensions      [0 3 -1 0 0 0 0];

internalField   nonuniform List<scalar> 
6272
(
6.37362943781e-07
1.27513932034e-10
-1.29739772206e-10
1.25230902924e-06
3.78207026057e-10
-3.8481422083e-10
1.84024842641e-06
6.19511502914e-10
-6.30345153067e-10
2.40530194751e-06
8.51399070524e-10
-8.66345976378e-10
2.95133191261e-06
1.07521403603e-09
-1.09425560376e-09
3.48126683792e-06
1.29219009354e-09
-1.31540165135e-09
3.99726686822e-06
1.50341508243e-09
-1.53096876616e-09
4.50098328356e-06
1.70983660825e-09
-1.74201086698e-09
4.9937258748e-06
1.91226732567e-09
-1.94946322867e-09
5.47647078842e-06
2.11139572893e-09
-2.15416034544e-09
5.94991080043e-06
2.30778353845e-09
-2.35683980718e-09
6.4143996369e-06
2.50185865765e-09
-2.55814590747e-09
6.86993704405e-06
2.69387642616e-09
-2.75860929684e-09
7.3163656974e-06
2.88397767632e-09
-2.95873335621e-09
7.75320155493e-06
3.0720887067e-09
-3.15887158176e-09
8.17911133652e-06
3.25762721149e-09
-3.35897059931e-09
8.59233534397e-06
3.43950424714e-09
-3.55868369472e-09
8.99067293452e-06
3.61596252319e-09
-3.75726133471e-09
9.37137633348e-06
3.78417329974e-09
-3.95317820208e-09
9.73079017151e-06
3.93972297403e-09
-4.14362608088e-09
1.00639246226e-05
4.07575218033e-09
-4.32362186401e-09
1.0365068361e-05
4.18203998312e-09
-4.48483126559e-09
1.06276722915e-05
4.24334017662e-09
-4.61402033151e-09
4.24007225255e-09
-4.72580459137e-09
1.08360405416e-05
6.26197181097e-07
1.23842515983e-10
1.23073531873e-06
3.67356295921e-10
1.80905573326e-06
6.01804787372e-10
2.36504426722e-06
8.27088102354e-10
2.90237229598e-06
1.0444174301e-09
3.42383578631e-06
1.25489484242e-09
3.93150687431e-06
1.45947774938e-09
4.42697959148e-06
1.6589800639e-09
4.91150131184e-06
1.85406873567e-09
5.38598327635e-06
2.04526340337e-09
5.85105037927e-06
2.23293662759e-09
6.3070061519e-06
2.41730274553e-09
6.753791745e-06
2.59836491728e-09
7.19110166816e-06
2.77588258988e-09
7.6183863004e-06
2.94934607881e-09
8.03431885658e-06
3.11775901056e-09
8.43712002017e-06
3.27950721147e-09
8.8245741163e-06
3.43216483734e-09
9.19385931949e-06
3.57209209879e-09
9.54162380324e-06
3.69415329615e-09
9.86348392569e-06
3.79108557382e-09
1.01547273139e-05
3.85251182724e-09
1.04102423391e-05
3.86378571549e-09
3.80082128577e-09
1.05835532446e-05
6.10318304409e-07
1.19624658306e-10
1.2000411766e-06
3.54894104881e-10
1.76468751305e-06
5.81478809233e-10
2.30780442122e-06
7.99202434265e-10
2.83278311208e-06
1.0091288742e-09
3.34224861011e-06
1.21221784057e-09
3.83818284497e-06
1.40929039112e-09
4.32212653937e-06
1.60102802878e-09
4.79524891269e-06
1.78795277276e-09
5.25837178347e-06
1.97041128871e-09
5.7120430236e-06
2.14858964542e-09
6.15655697114e-06
2.32252152296e-09
6.5918106996e-06
2.49197949654e-09
7.0173134478e-06
2.65638659662e-09
7.43244612563e-06
2.81491467503e-09
7.83600456463e-06
2.96626216872e-09
8.22623840008e-06
3.10837472321e-09
8.60106273707e-06
3.23842733105e-09
8.95774491646e-06
3.35251272537e-09
9.29320017573e-06
3.44535405425e-09
9.60375241705e-06
3.50986134218e-09
9.88550221013e-06
3.53641488043e-09
1.01341410893e-05
3.51274948704e-09
3.41500975595e-09
1.02981453555e-05
5.92299266186e-07
1.14953525074e-10
1.16506275723e-06
3.4109440677e-10
1.71394988978e-06
5.58979835895e-10
2.24218710075e-06
7.68354660898e-10
2.75289706628e-06
9.70124837083e-10
3.24854275676e-06
1.1651012577e-09
3.73101144766e-06
1.3539667819e-09
4.2018022906e-06
1.53728688425e-09
4.66199859637e-06
1.7154537501e-09
5.1122773221e-06
1.88863135819e-09
5.5530700034e-06
2.05680963843e-09
5.98469757373e-06
2.2198776204e-09
6.40707609119e-06
2.37746634458e-09
6.81952407704e-06
2.52873337467e-09
7.22131163687e-06
2.67255254191e-09
7.61143124771e-06
2.80744154025e-09
7.98817184547e-06
2.93119474877e-09
8.34942810414e-06
3.04078905639e-09
8.69270419252e-06
3.13232185775e-09
9.01516251553e-06
3.20075844825e-09
9.31360890094e-06
3.23953155682e-09
9.5846681429e-06
3.24058655828e-09
9.82424837047e-06
3.19426840976e-09
3.07811621414e-09
9.97794396273e-06
5.7234588838e-07
1.09889781741e-10
1.12624976848e-06
3.26137968107e-10
1.65754080428e-06
5.34610798812e-10
2.16911614193e-06
7.34971382652e-10
2.66383347444e-06
9.27954001738e-10
3.14401223123e-06
1.11421870284e-09
3.61141863188e-06
1.29430079486e-09
4.06753367049e-06
1.46866089259e-09
4.51342153165e-06
1.63761717807e-09
4.94955877974e-06
1.80116950675e-09
5.37620236685e-06
1.95911832418e-09
5.79365684953e-06
2.11119274367e-09
6.20192365784e-06
2.25690011432e-09
6.60027740559e-06
2.39531504714e-09
6.98778772758e-06
2.5251227182e-09
7.3635209132e-06
2.64466833037e-09
7.72597126601e-06
2.75178343121e-09
8.07301956678e-06
2.8434928611e-09
8.40228031889e-06
2.91596377841e-09
8.71120828994e-06
2.96463564464e-09
8.99694832659e-06
2.98399938267e-09
9.25643619917e-06
2.96759732271e-09
9.48572915932e-06
2.90774889137e-09
2.78426706364e-09
9.62927176106e-06
5.50575379984e-07
1.04491718887e-10
1.08382928859e-06
3.10189320697e-10
1.59583452017e-06
5.08641881152e-10
2.08911317122e-06
6.99436002442e-10
2.56624640479e-06
8.83109369798e-10
3.02945128105e-06
1.06018439103e-09
3.48036478105e-06
1.23107721777e-09
3.92038660071e-06
1.39611367024e-09
4.35059129471e-06
1.55551023811e-09
4.77134452496e-06
1.70919651442e-09
5.18276073e-06
1.85687127609e-09
5.58502257381e-06
1.99810675685e-09
5.9780875058e-06
2.13225868027e-09
6.36136895921e-06
2.25838135385e-09
6.7338350198e-06
2.37511329251e-09
7.09443563584e-06
2.48071544846e-09
7.44185923008e-06
2.57304869501e-09
7.77420332668e-06
2.64932364474e-09
8.08911456394e-06
2.70612267991e-09
8.38420336388e-06
2.73951629343e-09
8.65691722833e-06
2.74496126493e-09
8.90437266293e-06
2.71721535342e-09
9.12295110566e-06
2.65047383206e-09
2.52713575924e-09
9.25706558781e-06
5.27212240435e-07
9.88626404515e-11
1.03819596562e-06
2.93537192257e-10
1.5292778503e-06
4.81455578296e-10
2.00267435269e-06
6.62163195669e-10
2.46073679744e-06
8.360696597e-10
2.90558915052e-06
1.00357315427e-09
3.33877689527e-06
1.1649875408e-09
3.76151670964e-06
1.32050614301e-09
4.1747606108e-06
1.47019915677e-09
4.57891397247e-06
1.61394935869e-09
4.97406163438e-06
1.75141789323e-09
5.36025799102e-06
1.88209155973e-09
5.7372772947e-06
2.0052159436e-09
6.10460992071e-06
2.11978460552e-09
6.46132773923e-06
2.22447690942e-09
6.80624049477e-06
2.31755817269e-09
7.13811439759e-06
2.39698776737e-09
7.45529774445e-06
2.46031449047e-09
7.75562185692e-06
2.50462176643e-09
8.03677629139e-06
2.52656460044e-09
8.29633588625e-06
2.5223850966e-09
8.53167909171e-06
2.48791856452e-09
8.73954862632e-06
2.41902973634e-09
2.30040925594e-09
8.86505939076e-06
5.02489356583e-07
9.30597734934e-11
9.89802025351e-07
2.76360736828e-10
1.45840854242e-06
4.53362182645e-10
1.91040310534e-06
6.23585919167e-10
2.34802486034e-06
7.8737790655e-10
2.7732514579e-06
9.45027039645e-10
3.18753235944e-06
1.09673564833e-09
3.59191592603e-06
1.24260072603e-09
3.98715700022e-06
1.38258834081e-09
4.37368297139e-06
1.51651246893e-09
4.75155941962e-06
1.64397534273e-09
5.12076476739e-06
1.76441178415e-09
5.48100044951e-06
1.8770587655e-09
5.83165710947e-06
1.98085762887e-09
6.17197967273e-06
2.07454964149e-09
6.50078644425e-06
2.1565624183e-09
6.8168112505e-06
2.22501781742e-09
7.11858274499e-06
2.27776918381e-09
7.404138556e-06
2.31230598924e-09
7.67127070487e-06
2.32582037704e-09
7.91769040995e-06
2.31529072286e-09
8.1410906554e-06
2.27756580215e-09
8.33843092482e-06
2.20980049022e-09
2.09848657069e-09
8.45610090922e-06
4.76451978516e-07
8.70997568982e-11
9.38789859545e-07
2.58721500493e-10
1.38362286325e-06
4.24541598147e-10
1.81294803316e-06
5.8405431396e-10
2.22892710154e-06
7.37520348485e-10
2.63337984627e-06
8.85136937042e-10
3.02762009458e-06
1.02700945936e-09
3.41259535664e-06
1.16316028492e-09
3.78888524364e-06
1.2934725682e-09
4.15686198296e-06
1.41769646581e-09
4.51659628918e-06
1.53542675023e-09
4.86793680894e-06
1.64603694023e-09
5.2106450714e-06
1.74877240471e-09
5.54406354784e-06
1.84265053994e-09
5.86744604892e-06
1.92646491111e-09
6.17977694051e-06
1.99881762859e-09
6.479760731e-06
2.05803207368e-09
6.7659980269e-06
2.10219637548e-09
7.03667583081e-06
2.1291899002e-09
7.28975307021e-06
2.13671590277e-09
7.52313101128e-06
2.12235103214e-09
7.73476454589e-06
2.08382156865e-09
7.9218132473e-06
2.01928709077e-09
1.91670941446e-09
8.03238379994e-06
4.4916936365e-07
8.10400211071e-11
8.85320823799e-07
2.40784393025e-10
1.30528030239e-06
3.95238805992e-10
1.71087628571e-06
5.4387682773e-10
2.10416810148e-06
6.86879009743e-10
2.48683620497e-06
8.24365911541e-10
2.86000729785e-06
9.56340445423e-10
3.2245616093e-06
1.08276037658e-09
3.58100170907e-06
1.20349069962e-09
3.92955205947e-06
1.31820964998e-09
4.27033559464e-06
1.42649460883e-09
4.60312465198e-06
1.52775280606e-09
4.92763403785e-06
1.62122814567e-09
5.24332316256e-06
1.70602955977e-09
5.54938439746e-06
1.78105266286e-09
5.84487791034e-06
1.84500593774e-09
6.12860229304e-06
1.89641231561e-09
6.39916427227e-06
1.9336335673e-09
6.65489444313e-06
1.95489681394e-09
6.8939797589e-06
1.95834918887e-09
7.11444296844e-06
1.94208063405e-09
7.31442996145e-06
1.90447087718e-09
7.49137132586e-06
1.84439365367e-09
1.75115306431e-09
7.59550879961e-06
4.20803407386e-07
7.49240135846e-11
8.29715068199e-07
2.22678756456e-10
1.22381150168e-06
3.65662730114e-10
1.60470021563e-06
5.03323818853e-10
1.97433379437e-06
6.35761642164e-10
2.3343144933e-06
7.63063490327e-10
2.68554385075e-06
8.85161877131e-10
3.02875747993e-06
1.00191561654e-09
3.36450938456e-06
1.11317790248e-09
3.69289619991e-06
1.21863369511e-09
4.0139735738e-06
1.31782941171e-09
4.32759229941e-06
1.4102179822e-09
4.6333857912e-06
1.49509225837e-09
4.93085367015e-06
1.57160128022e-09
5.219225158e-06
1.63874290801e-09
5.49757839428e-06
1.69536764544e-09
5.76479290338e-06
1.74019365263e-09
6.01952223718e-06
1.77182784179e-09
6.26026075646e-06
1.78879932336e-09
6.48536442294e-06
1.78963503527e-09
6.69303000512e-06
1.77286638948e-09
6.88150778158e-06
1.7373426131e-09
7.04846918878e-06
1.6823734573e-09
1.5985325579e-09
7.14664962022e-06
3.91491115687e-07
6.87852886655e-11
7.7222863793e-07
2.04497384386e-10
1.13960699102e-06
3.35965816593e-10
1.49496558492e-06
4.62634156519e-10
1.84006155118e-06
5.84490791846e-10
2.17647355594e-06
7.0157379131e-10
2.50499042207e-06
8.13815075529e-10
2.82612715694e-06
9.21026804564e-10
3.14040414086e-06
1.02300244951e-09
3.44794250906e-06
1.11944931588e-09
3.74869634478e-06
1.20993758495e-09
4.04254291894e-06
1.29392574418e-09
4.32911871863e-06
1.3707560955e-09
4.60790931791e-06
1.43964997359e-09
4.87820656843e-06
1.49970912659e-09
5.1391366324e-06
1.54992427841e-09
5.38961619526e-06
1.58919110018e-09
5.62836666594e-06
1.61633306838e-09
5.85402283236e-06
1.63013782472e-09
6.06508409952e-06
1.62942141004e-09
6.25999079033e-06
1.61311227867e-09
6.43708285367e-06
1.58041093509e-09
6.59419490258e-06
1.53087204038e-09
1.45622029678e-09
6.68673329309e-06
3.61434534624e-07
6.26796899503e-11
7.13216734166e-07
1.86393736267e-10
1.05308299159e-06
3.06339750475e-10
1.38219652664e-06
4.21999409063e-10
1.70204647177e-06
5.33303154683e-10
2.01408082598e-06
6.40210858438e-10
2.31909411418e-06
7.42643551061e-10
2.61750445991e-06
8.40427810999e-10
2.90966738487e-06
9.33328113331e-10
3.19570675825e-06
1.021034974e-09
3.47556443113e-06
1.10313996225e-09
3.74907348747e-06
1.17913744739e-09
4.01590570301e-06
1.24842262384e-09
4.27558225745e-06
1.31029346897e-09
4.5274438313e-06
1.36395438029e-09
4.770655162e-06
1.40852659214e-09
5.00416016531e-06
1.44306700024e-09
5.22676621963e-06
1.4665847525e-09
5.43720447241e-06
1.47808751224e-09
5.63412833501e-06
1.47660722263e-09
5.81621728307e-06
1.46139781677e-09
5.98193495621e-06
1.43194297869e-09
6.12924906462e-06
1.38790585353e-09
1.32205202583e-09
6.21633392414e-06
3.30832542187e-07
5.66279472864e-11
6.53070348514e-07
1.68439535397e-10
9.64703713341e-07
2.76915084211e-10
1.26685604711e-06
3.81577667874e-10
1.56084331638e-06
4.82359211538e-10
1.84786791906e-06
5.79179253452e-10
2.12869716603e-06
6.71921247405e-10
2.40373539525e-06
7.60408966976e-10
2.6732060868e-06
8.44404763139e-10
2.93716798113e-06
9.23603217824e-10
3.19555038195e-06
9.97619957659e-10
3.44818478928e-06
1.0659884888e-09
3.6947831411e-06
1.12816156121e-09
3.93489672785e-06
1.18351367544e-09
4.16790733685e-06
1.23134668935e-09
4.39303478171e-06
1.27090076183e-09
4.6092568474e-06
1.30137307542e-09
4.81546989614e-06
1.32193760337e-09
5.01053466416e-06
1.33178318536e-09
5.19320088486e-06
1.33013442347e-09
5.36230883859e-06
1.31644553869e-09
5.51649845172e-06
1.29039559613e-09
5.65390318016e-06
1.25175047451e-09
1.19421141884e-09
5.73561220525e-06
2.99760039386e-07
5.06249205526e-11
5.91973387564e-07
1.50627366554e-10
8.74855256993e-07
2.47729683952e-10
1.14947004205e-06
3.41490088381e-10
1.41701133862e-06
4.31827473866e-10
1.67848776182e-06
5.18641621641e-10
1.93457864327e-06
6.01799452072e-10
2.18564929662e-06
6.81121626049e-10
2.43184686254e-06
7.56377400477e-10
2.67316703662e-06
8.27276363289e-10
2.90952791844e-06
8.9346174516e-10
3.14077256775e-06
9.54510920503e-10
3.36663294431e-06
1.00993525658e-09
3.58668035051e-06
1.05918387668e-09
3.80035449265e-06
1.10164811333e-09
4.00692174908e-06
1.13667663207e-09
4.20546603538e-06
1.16358652615e-09
4.39496204865e-06
1.1816928009e-09
4.57438356772e-06
1.19033495701e-09
4.74258434324e-06
1.18890473605e-09
4.89845128554e-06
1.17698140332e-09
5.04082924419e-06
1.15435466102e-09
5.1681007132e-06
1.12089244865e-09
1.07116633671e-09
5.24443568968e-06
2.68326397467e-07
4.46913072416e-11
5.30136558089e-07
1.33012280396e-10
7.83909557729e-07
2.18851900617e-10
1.03057539556e-06
3.01809850299e-10
1.27118240531e-06
3.81793857826e-10
1.50660526994e-06
4.58694115472e-10
1.7374265734e-06
5.32372320742e-10
1.96395323497e-06
6.02653203861e-10
2.1862712361e-06
6.69318070992e-10
2.4043465568e-06
7.32096964836e-10
2.61810565088e-06
7.90666748524e-10
2.82740125359e-06
8.4465006615e-10
3.03197730819e-06
8.93617286535e-10
3.23141422541e-06
9.37088869724e-10
3.42522122991e-06
9.74540061804e-10
3.61273922322e-06
1.00541346402e-09
3.79316264205e-06
1.02913482576e-09
3.96556149553e-06
1.04513246575e-09
4.12895135325e-06
1.05287011325e-09
4.28230902183e-06
1.05186649147e-09
4.42459413802e-06
1.04180543145e-09
4.55483624328e-06
1.02254908856e-09
4.67169724612e-06
9.94021766053e-10
9.51602626454e-10
4.74254259877e-06
2.36684640785e-07
3.88359094028e-11
4.67842750423e-07
1.15620261942e-10
6.92210693274e-07
1.90320599279e-10
9.10586252685e-07
2.62582270462e-10
1.12386202476e-06
3.32308516432e-10
1.33276786019e-06
3.99387828086e-10
1.53778879235e-06
4.63684742898e-10
1.73915705363e-06
5.25034045052e-10
1.93692732164e-06
5.83233476872e-10
2.13109770566e-06
6.38039018091e-10
2.32160901223e-06
6.89163586038e-10
2.50834604656e-06
7.36277133346e-10
2.69104463666e-06
7.79008660799e-10
2.86933707977e-06
8.1694546873e-10
3.04276680725e-06
8.49641726933e-10
3.21078427303e-06
8.76625758979e-10
3.37266721378e-06
8.97415377529e-10
3.52752163198e-06
9.11534985668e-10
3.6744282204e-06
9.18543411651e-10
3.81244781028e-06
9.18060612677e-10
3.94074882721e-06
9.09855945905e-10
4.058506817e-06
8.9384191228e-10
4.16460664038e-06
8.69972625384e-10
8.34368629411e-10
4.22970695638e-06
2.04889680258e-07
3.3063001204e-11
4.05185246283e-07
9.84638206704e-11
5.99884421307e-07
1.62153743866e-10
7.89663635313e-07
2.23827421319e-10
9.75233445451e-07
2.83390271402e-10
1.1571807107e-06
3.40735371749e-10
1.33586889348e-06
3.95736902953e-10
1.51148141671e-06
4.48243786244e-10
1.68408513853e-06
4.98075288583e-10
1.85371658981e-06
5.45017091142e-10
2.02036814102e-06
5.88820414326e-10
2.1839366813e-06
6.29204164536e-10
2.34417936469e-06
6.65852744539e-10
2.50078583839e-06
6.98419585053e-10
2.65334972715e-06
7.26530985693e-10
2.80140912981e-06
7.49794772536e-10
2.94428406616e-06
7.67809861692e-10
3.08108660681e-06
7.80179076023e-10
3.21094926929e-06
7.86533452808e-10
3.33307097159e-06
7.86572180296e-10
3.44691287983e-06
7.80140276531e-10
3.55180112689e-06
7.67190458894e-10
3.64673758337e-06
7.47689968817e-10
7.18430539446e-10
3.70572281891e-06
1.72912230487e-07
2.73728886494e-11
3.42129346135e-07
8.1543311222e-11
5.06912999451e-07
1.34350614685e-10
6.67779701038e-07
1.85541312069e-10
8.25277086294e-07
2.35028307208e-10
9.79839258209e-07
2.82715170336e-10
1.13174080559e-06
3.28489659382e-10
1.28112405797e-06
3.72220203123e-10
1.42808743543e-06
4.13751045358e-10
1.57270033567e-06
4.52900401004e-10
1.71497936824e-06
4.89460906522e-10
1.85482331031e-06
5.23198341336e-10
1.99205061922e-06
5.5385228848e-10
2.12638917533e-06
5.81138654326e-10
2.2575254647e-06
6.04752984421e-10
2.38506131476e-06
6.24377208092e-10
2.50832325985e-06
6.39684170393e-10
2.62647493739e-06
6.5034430207e-10
2.73861101616e-06
6.56038742339e-10
2.84415750855e-06
6.56524120999e-10
2.94295334971e-06
6.51721551955e-10
3.03451763159e-06
6.4162691685e-10
3.11785125686e-06
6.26199324159e-10
6.02844767398e-10
3.17029013468e-06
1.40801950147e-07
2.17620982357e-11
2.78818831031e-07
6.48485225403e-11
4.13484669231e-07
1.06894338014e-10
5.45167017573e-07
1.47698578257e-10
6.74268210539e-07
1.87186522738e-10
8.010940525e-07
2.25276029874e-10
9.25854423718e-07
2.61873120443e-10
1.04867174644e-06
2.96868502457e-10
1.16965048174e-06
3.30135024425e-10
1.2888612076e-06
3.61526163167e-10
1.40630478161e-06
3.90875254892e-10
1.5219026905e-06
4.17995298258e-10
1.63551841475e-06
4.42679643696e-10
1.7469422753e-06
4.64703975135e-10
1.85595731912e-06
4.83829944611e-10
1.96221735426e-06
4.99809444025e-10
2.06512355756e-06
5.12387855225e-10
2.16393509775e-06
5.21301355201e-10
2.25762598644e-06
5.26265113446e-10
2.34578119961e-06
5.270684194e-10
2.42884411445e-06
5.23712832056e-10
2.50648809881e-06
5.16244570659e-10
2.57757407101e-06
5.04592339114e-10
4.86726278661e-10
2.62295059661e-06
1.08799199117e-07
1.62247129973e-11
2.15663925682e-07
4.83624631051e-11
3.20139054347e-07
7.97567975325e-11
4.22481555418e-07
1.10259094955e-10
5.22960591911e-07
1.39810460704e-10
6.21797067043e-07
1.68346546111e-10
7.19140334242e-07
1.95794431083e-10
8.1510345379e-07
2.22070279262e-10
9.09764231675e-07
2.47077520209e-10
1.00316267293e-06
2.7070554842e-10
1.09529199162e-06
2.92829071289e-10
1.18609254373e-06
3.13307959302e-10
1.27545945909e-06
3.3198786065e-10
1.36325196505e-06
3.48701863882e-10
1.44932643775e-06
3.63273419527e-10
1.53340097283e-06
3.75520043996e-10
1.61503033664e-06
3.85256117811e-10
1.69366171544e-06
3.9228719533e-10
1.76823998549e-06
3.96384307936e-10
1.83838137927e-06
3.97378690651e-10
1.90497713123e-06
3.95303375168e-10
1.96778995915e-06
3.90204532711e-10
2.02558123457e-06
3.81993071335e-10
3.69187168869e-10
2.06302440251e-06
7.71528447231e-08
1.07536606496e-11
1.53076399869e-07
3.20640421791e-11
2.27443522468e-07
5.29029359733e-11
3.00415563858e-07
7.31730123311e-11
3.72162865189e-07
9.28337126694e-11
4.4283152802e-07
1.11840956307e-10
5.12531007155e-07
1.30145139585e-10
5.813408269e-07
1.47689687578e-10
6.4930760849e-07
1.64409774282e-10
7.16451880306e-07
1.80231465768e-10
7.82759979151e-07
1.95071144675e-10
8.48187794608e-07
2.08835338664e-10
9.12656888035e-07
2.21421029258e-10
9.76078632045e-07
2.3271659137e-10
1.03834748816e-06
2.426034964e-10
1.09925537322e-06
2.50958835118e-10
1.15850825101e-06
2.57658234197e-10
1.21581657607e-06
2.62577191878e-10
1.27060425273e-06
2.65600317777e-10
1.32249378809e-06
2.66648192565e-10
1.37184198813e-06
2.656781719e-10
1.41842944314e-06
2.62640913669e-10
1.46147018191e-06
2.57491592654e-10
2.49306639917e-10
1.48969119512e-06
4.59536263747e-08
5.34095626025e-12
9.12419681146e-08
1.59293111864e-11
1.3567151781e-07
2.6292853608e-11
1.79329028267e-07
3.63838402929e-11
2.22308313608e-07
4.61816746357e-11
2.6469191413e-07
5.56640852427e-11
3.06545599411e-07
6.4806137254e-11
3.47914960976e-07
7.3579516408e-11
3.88824356978e-07
8.19518927925e-11
4.29282443596e-07
8.98864595056e-11
4.69276561523e-07
9.7341587183e-11
5.08777863589e-07
1.04270642089e-10
5.47734944019e-07
1.10621962702e-10
5.8609104398e-07
1.16339084836e-10
6.23771969332e-07
1.21361076784e-10
6.60628417846e-07
1.25623392482e-10
6.96479778537e-07
1.29060420622e-10
7.31282872776e-07
1.31617380415e-10
7.65241753999e-07
1.33289934952e-10
7.9806310242e-07
1.34074204962e-10
8.28962521956e-07
1.33854906268e-10
8.57739430667e-07
1.32520753076e-10
8.8443855378e-07
1.30091684221e-10
1.26161994089e-10
9.02109705291e-07
1.52334864969e-08
3.025939545e-08
4.50140512177e-08
5.95244875877e-08
7.38207235515e-08
8.79293137808e-08
1.01871652268e-07
1.15662590617e-07
1.29309933853e-07
1.42815749029e-07
1.56175221889e-07
1.69377800217e-07
1.82405160172e-07
1.95235141341e-07
2.07840083945e-07
2.2015762247e-07
2.3212292571e-07
2.43767857302e-07
2.55372183858e-07
2.66824190407e-07
2.77464015895e-07
2.87209675897e-07
2.96282122858e-07
3.02323713373e-07
6.17087185056e-07
-1.20920227058e-09
-1.18981626642e-10
1.21808919397e-06
-3.58514174377e-09
-3.53000481059e-10
1.7991268542e-06
-5.869107406e-09
-5.78540219656e-10
2.36339338385e-06
-8.06112362228e-09
-7.95693597381e-10
2.91405835667e-06
-1.0175169862e-08
-1.00578206754e-09
3.45362353952e-06
-1.22233772246e-08
-1.21003893576e-09
3.98421261983e-06
-1.42152917266e-08
-1.4095797987e-09
4.50732266416e-06
-1.61581724008e-08
-1.60544130714e-09
5.02420576044e-06
-1.80573767627e-08
-1.79858351578e-09
5.53581725927e-06
-1.99170983373e-08
-1.98992670631e-09
6.04292287013e-06
-2.17404852243e-08
-2.1803558915e-09
6.54601862739e-06
-2.35296955113e-08
-2.37075843548e-09
7.04534318504e-06
-2.52857765273e-08
-2.5620274161e-09
7.54087971635e-06
-2.70087043683e-08
-2.75509031573e-09
8.03216052822e-06
-2.8696974332e-08
-2.95087082539e-09
8.51842546974e-06
-3.03473016471e-08
-3.15039066112e-09
8.99909379748e-06
-3.19560261204e-08
-3.35495252781e-09
9.47313098446e-06
-3.35190389232e-08
-3.56608637198e-09
9.93861959444e-06
-3.50294614771e-08
-3.78535349306e-09
1.03927889634e-05
-3.64765373306e-08
-4.01457854986e-09
1.08321940609e-05
-3.78463890283e-08
-4.25595510995e-09
1.12520156646e-05
-3.91211848565e-08
-4.51211971295e-09
1.16448833105e-05
-4.02755646477e-08
-4.78601335507e-09
-4.12542820486e-08
-5.07660562306e-09
1.19856191433e-05
6.20034268199e-07
-2.01038556893e-09
1.22148515571e-06
-5.96064585118e-09
1.80033464456e-06
-9.75644778822e-09
2.36015853497e-06
-1.33969440634e-08
2.90442244858e-06
-1.69066795857e-08
3.43579440636e-06
-2.03067107867e-08
3.95641282329e-06
-2.36131094261e-08
4.46783076703e-06
-2.68379632571e-08
4.97131313939e-06
-2.99904587672e-08
5.46785185575e-06
-3.30778058487e-08
5.95821103539e-06
-3.61054670932e-08
6.44291071663e-06
-3.90772403421e-08
6.92220056733e-06
-4.19951712903e-08
7.39610724415e-06
-4.48596009098e-08
7.86413311917e-06
-4.76684206774e-08
8.32541849079e-06
-5.04165056693e-08
8.7793675828e-06
-5.30978962017e-08
9.22494397438e-06
-5.5705836774e-08
9.66006971537e-06
-5.82288585362e-08
1.00818491888e-05
-6.06494941472e-08
1.04865930305e-05
-6.29448644184e-08
1.08693770262e-05
-6.50857632825e-08
1.12230294688e-05
-6.70338990505e-08
-6.87246880058e-08
1.15264813549e-05
6.24464152493e-07
-1.74493751613e-09
1.22594174725e-06
-5.17355699607e-09
1.80023044483e-06
-8.46713749583e-09
2.35132167763e-06
-1.1624305418e-08
2.88297694375e-06
-1.46667238638e-08
3.39810111982e-06
-1.76129242048e-08
3.89891911791e-06
-2.04769404687e-08
4.38711086746e-06
-2.32692307071e-08
4.86402746961e-06
-2.59977858278e-08
5.33072347975e-06
-2.86687506341e-08
5.78800476807e-06
-3.12866660465e-08
6.23640408481e-06
-3.38544881758e-08
6.67618520625e-06
-3.63735142742e-08
7.10736762335e-06
-3.88434497323e-08
7.52952584511e-06
-4.12621276293e-08
7.94181622002e-06
-4.36249401629e-08
8.34338548697e-06
-4.59252130722e-08
8.73292817671e-06
-4.81542094632e-08
9.10833902017e-06
-5.03002153413e-08
9.46668194483e-06
-5.2347463203e-08
9.80386377928e-06
-5.42741996074e-08
1.01147336371e-05
-5.60529030567e-08
1.0392559747e-05
-5.76517696294e-08
-5.9051918867e-08
1.06244423951e-05
6.275226464e-07
1.22559171869e-06
1.79018395565e-06
2.32574297154e-06
2.83637134366e-06
3.32522625152e-06
3.79469186407e-06
4.24660018241e-06
4.68242621617e-06
5.10331026461e-06
5.51012469226e-06
5.90342811531e-06
6.28348725867e-06
6.65037695081e-06
7.00382742864e-06
7.34299600535e-06
7.66679024147e-06
7.9737314479e-06
8.26186807059e-06
8.52841417179e-06
8.76938973922e-06
8.9800378658e-06
9.15464709093e-06
9.29500076575e-06
6.255874708e-07
1.99061474464e-09
-1.29758175402e-10
1.22320769154e-06
5.90618996596e-09
-3.84843939965e-10
1.7885014341e-06
9.67561949582e-09
-6.30355725129e-10
2.32510728465e-06
1.32947232741e-08
-8.6633829295e-10
2.83645878491e-06
1.67839746575e-08
-1.0942484061e-09
3.32568696858e-06
2.01623336972e-08
-1.31540683451e-09
3.79529977272e-06
2.34463596402e-08
-1.53098863027e-09
4.24736163913e-06
2.66496313333e-08
-1.74203747066e-09
4.68352700507e-06
2.97832228396e-08
-1.94948265055e-09
5.10492461811e-06
3.28554993355e-08
-2.15416395079e-09
5.51240673785e-06
3.58726364686e-08
-2.35682105189e-09
5.90647539129e-06
3.88390251807e-08
-2.55810032235e-09
6.28724920582e-06
4.17569212547e-08
-2.75854374451e-09
6.65471923425e-06
4.46266666285e-08
-2.95864781657e-09
7.00877519529e-06
4.74474049199e-08
-3.15875169092e-09
7.3485510398e-06
5.02158554272e-08
-3.35880820757e-09
7.67289338385e-06
5.29259114356e-08
-3.55848026813e-09
7.9802202675e-06
5.55689241882e-08
-3.75701877584e-09
8.26841166691e-06
5.81322215455e-08
-3.95292345719e-09
8.53480609769e-06
6.05985233646e-08
-4.14334541019e-09
8.77557994653e-06
6.29430873472e-08
-4.32330140376e-09
8.98580251083e-06
6.51307541072e-08
-4.48451557964e-09
9.15969479045e-06
6.71148682618e-08
-4.61362367882e-09
6.88177057929e-08
-4.72522333317e-09
9.29928173431e-06
6.2241636943e-07
2.24735566423e-09
1.22318115034e-06
6.66769147131e-09
1.79783559204e-06
1.09238975221e-08
2.34976823224e-06
1.50127279379e-08
2.88205654087e-06
1.89572770826e-08
3.39752138481e-06
2.27783732485e-08
3.89848555285e-06
2.64942695979e-08
4.38684122762e-06
3.01201322151e-08
4.86403922986e-06
3.36679117561e-08
5.33115510684e-06
3.71469693777e-08
5.78899997186e-06
4.05647007496e-08
6.23807901752e-06
4.39265657553e-08
6.67855291784e-06
4.72359555207e-08
7.11033502861e-06
5.0494349999e-08
7.53309839603e-06
5.37010158852e-08
7.9459705667e-06
5.68523721318e-08
8.34804180467e-06
5.99442101404e-08
8.73792795175e-06
6.29715306781e-08
9.11340468274e-06
6.59241233145e-08
9.47163253013e-06
6.8785911372e-08
9.80862233724e-06
7.15352785941e-08
1.01191940883e-05
7.41433762646e-08
1.03965392107e-05
7.65698114286e-08
7.87129431988e-08
1.06278309314e-05
6.18150518128e-07
1.44515824634e-09
1.2189215301e-06
4.28750100702e-09
1.79800331964e-06
7.02478746997e-09
2.35848880225e-06
9.6554271588e-09
2.9033035718e-06
1.21942891406e-08
3.43500532185e-06
1.46549506117e-08
3.95579780005e-06
1.70490947069e-08
4.46736996717e-06
1.93863067852e-08
4.97104283931e-06
2.16741679792e-08
5.46785270927e-06
2.39189163825e-08
5.95857639784e-06
2.61255708827e-08
6.44372277106e-06
2.82980516448e-08
6.92348453879e-06
3.04390837176e-08
7.39782802324e-06
3.25503385794e-08
7.86627630872e-06
3.46319712579e-08
8.32796519343e-06
3.66825085746e-08
8.78224274775e-06
3.87007379709e-08
9.22804416171e-06
4.06854401529e-08
9.663233755e-06
4.26323292794e-08
1.00849603977e-05
4.45336734152e-08
1.04895642145e-05
4.63792823199e-08
1.08721486687e-05
4.81552829164e-08
1.12255380407e-05
4.98403829267e-08
5.13676338445e-08
1.15286331772e-05
6.1625477139e-07
1.21699430325e-06
1.79814408843e-06
2.36268428005e-06
2.91358512538e-06
3.45330273876e-06
3.98397877604e-06
4.50714931943e-06
5.02409779953e-06
5.53579881026e-06
6.04302538354e-06
6.54626959941e-06
7.04575331103e-06
7.54144153382e-06
8.03286719394e-06
8.51927329283e-06
9.00005250564e-06
9.47417369768e-06
9.9396911326e-06
1.03938554727e-05
1.08332235784e-05
1.12529625022e-05
1.16457266853e-05
1.19863525588e-05
1.53511530763e-08
5.34314000471e-12
3.04631868078e-08
1.59360392975e-11
4.52662453986e-08
2.63044650893e-11
5.97736345507e-08
3.64007648893e-11
7.40220372762e-08
4.6204284274e-11
8.80577682381e-08
5.56925136425e-11
1.0189671758e-07
6.48404295967e-11
1.15567482633e-07
7.36195908645e-11
1.29067938659e-07
8.19976835982e-11
1.42412986077e-07
8.99376962567e-11
1.55585860506e-07
9.73980185108e-11
1.68584744397e-07
1.0433176778e-10
1.81392536974e-07
1.10687184508e-10
1.93999844935e-07
1.16407647153e-10
2.06382314322e-07
1.21432134455e-10
2.18499635755e-07
1.25695831335e-10
2.30283228219e-07
1.29132372827e-10
2.41753831432e-07
1.3168566318e-10
2.532361405e-07
1.3335137509e-10
2.64655245993e-07
1.34128103728e-10
2.75322455918e-07
1.33902583997e-10
2.85104798242e-07
1.32561058233e-10
2.94330178724e-07
1.30119651813e-10
1.26172093035e-10
3.00699971664e-07
4.63372571701e-08
1.07576533128e-11
9.19081481144e-08
3.2076442877e-11
1.36482531169e-07
5.29248092479e-11
1.80112022538e-07
7.32056338882e-11
2.22934916767e-07
9.28779502368e-11
2.65076962336e-07
1.11897181583e-10
3.06617077423e-07
1.30213419278e-10
3.47605726451e-07
1.47770061561e-10
3.88078424197e-07
1.64501939472e-10
4.28037576674e-07
1.80335291506e-10
4.67472020568e-07
1.95185970223e-10
5.06355817024e-07
2.0896020289e-10
5.44658205453e-07
2.21554479085e-10
5.82348184349e-07
2.32856791654e-10
6.19378683969e-07
2.4274851953e-10
6.55653204016e-07
2.51106344244e-10
6.91011025841e-07
2.57804947651e-10
7.2542206262e-07
2.62718630119e-10
7.59119835768e-07