/*--------------------------------*- C++ -*----------------------------------*\
| =========                 |                                                 |
| \\      /  F ield         | foam-extend: Open Source CFD                    |
|  \\    /   O peration     | Version:     3.2                                |
|   \\  /    A nd           | Web:         http://www.foam-extend.org         |
|    \\/     M anipulation  | For copyright notice see file Copyright         |
\*---------------------------------------------------------------------------*/
FoamFile
{
    version     2.0;
    format      ascii;
    class       volScalarField;
    location    "1";
    object      nut;
}
// * * * * * * * * * * * * * * * * * * * * * * * * * * * * * * * * * * * * * //

dimensions      [0 2 -1 0 0 0 0];

internalField   nonuniform List<scalar> 
3200
(
0.00832688456472
0.00832070658622
0.00830731655396
0.00828534583441
0.00825344326794
0.0082102445597
0.00815422005393
0.00808357935585
0.00799629346857
0.00789020533357
0.00776316844722
0.00761316970182
0.00743841877566
0.00723741291257
0.00700901404821
0.00675258216735
0.00646816962992
0.00615678976869
0.00582076172199
0.00546407753609
0.0050927005073
0.004714554158
0.00433854260617
0.00397141104696
0.00834033138994
0.0083347164278
0.00832191811748
0.00830005246722
0.0082676481663
0.00822364748041
0.00816708508647
0.00809680920592
0.00801139432235
0.00790921958769
0.00778862314473
0.00764805961092
0.00748622719531
0.00730216761129
0.00709537229257
0.00686594184693
0.00661480635022
0.00634400906252
0.00605702385889
0.00575895527903
0.00545637418291
0.00515629117979
0.00486678822153
0.00459307751599
0.0083436734409
0.00833999058026
0.00832983620268
0.00831005414215
0.00827860220088
0.00823462540564
0.00817784403467
0.0081079504891
0.00802431872938
0.00792600938098
0.00781193169831
0.00768104053649
0.00753250743917
0.00736585597369
0.0071810858594
0.00697883582843
0.00676060012303
0.00652898809161
0.00628797793762
0.00604298911157
0.00580051076982
0.00556691256761
0.00534793823392
0.00514705997168
0.0083294054815
0.00832967656779
0.00832520478446
0.00831051106665
0.00828233762811
0.00823982959312
0.00818349212366
0.00811409021022
0.0080320296339
0.00793722838179
0.00782927009873
0.00770764435127
0.0075719697482
0.00742216874679
0.00725860518291
0.0070822365423
0.00689480801745
0.00669906662895
0.00649894095991
0.00629954279891
0.0061067615302
0.0059261714314
0.00576162404717
0.00561559156811
0.00829351520085
0.00829975631402
0.00830399471406
0.00829751362671
0.00827520158626
0.00823589731366
0.00818088648261
0.00811217845674
0.00803142603859
0.0079395832662
0.00783701913009
0.00772379780576
0.00759995956795
0.00746574082614
0.00732173073629
0.00716901063057
0.00700931604116
0.00684520389276
0.0066801724769
0.00651862913059
0.00636552399879
0.00622542060816
0.00610093811138
0.00599386099637
0.00824209620055
0.00825449593048
0.00826787498795
0.00827055560882
0.00825531494487
0.00822023654725
0.00816710802331
0.00809913105035
0.00801928302165
0.00792966099881
0.00783149920097
0.00772546793714
0.00761200806361
0.00749159578501
0.00736492706951
0.00723305553263
0.00709752520508
0.00696050076752
0.00682485344101
0.00669411667441
0.00657217769427
0.00646254388375
0.00636706456491
0.00628691173873
0.00819779009798
0.00821119402797
0.00822734576893
0.00823459966709
0.00822391840352
0.00819186950998
0.00813996877561
0.00807212761689
0.00799242833077
0.00790404094269
0.00780905309955
0.00770873340889
0.00760389312054
0.00749518659248
0.00738332482851
0.00726922668278
0.00715413808971
0.00703974110792
0.0069282310202
0.00682227822723
0.00672474055758
0.00663825358225
0.00656414592802
0.00650295562577
0.00820213479159
0.00819928710063
0.00820033325102
0.0081993742784
0.008185257957
0.00815157690731
0.00809821203586
0.00802878783634
0.0079478753399
0.00785938873833
0.00776611112833
0.00766982954226
0.00757166660259
0.00747239548117
0.00737267383029
0.00727321632105
0.00717492029313
0.00707896704647
0.0069869393108
0.00690083558186
0.00682266176619
0.00675405941127
0.00669620125428
0.00664921753377
0.00831618804205
0.00824911193875
0.00820318116399
0.00817427248149
0.00814406985253
0.00810078805199
0.00804108598586
0.00796704315596
0.00788281059943
0.00779248039122
0.00769921658735
0.00760515903084
0.0075116444577
0.00741949482885
0.00732925916459
0.00724140552376
0.00715647055235
0.00707529099305
0.00699886500307
0.00692848229474
0.00686552285917
0.00681120094161
0.00676634664824
0.00673077491341
0.00864631111958
0.00836594376271
0.00823608632519
0.0081608465858
0.00810159683409
0.00803953619867
0.00796736265777
0.00788469772545
0.00779440729269
0.00770012352336
0.00760498913804
0.00751126348178
0.00742036593144
0.00733308391495
0.00724979833902
0.00717076303807
0.00709621603069
0.00702651414762
0.00696222299844
0.00690416033875
0.0068533577972
0.00681074509069
0.00677681864215
0.00675112968007
0.00877857938093
0.00846573758925
0.00827497711552
0.00814959571917
0.00805324163188
0.00796487989321
0.0078743895617
0.00777889912665
0.00767954062818
0.00757900044323
0.00748002815041
0.00738475372059
0.00729452534272
0.00721000881057
0.00713143127443
0.00705874547924
0.00699184954432
0.00693074988302
0.00687568219074
0.00682729990511
0.00678634367031
0.0067535409269
0.00672917651151
0.00671256079454
0.00882560825504
0.00851901356914
0.00829321263527
0.00812477196146
0.00798986467763
0.00787099952884
0.00775779777127
0.00764580296335
0.00753451986438
0.00742548014824
0.00732077981305
0.00722220419708
0.00713090183982
0.0070473423145
0.00697147573228
0.00690295345953
0.00684135784696
0.00678644530728
0.00673839731416
0.00669755933551
0.00666458892322
0.00664015928165
0.0066244398984
0.00661650487315
0.00884098328049
0.00853461277467
0.00828171183476
0.00807509376081
0.00790211428637
0.00775065615854
0.00761179801491
0.00748046671813
0.0073548862728
0.00723542440304
0.00712338155982
0.0070200584834
0.00692625375449
0.00684212823521
0.00676731400186
0.006701132703
0.006642981868
0.00659250367033
0.00654954649045
0.00651445321086
0.00648795004379
0.0064707844617
0.00646310113332
0.00646373436047
0.00884141986327
0.00852149769536
0.00823842177391
0.00799324423131
0.00778141031388
0.00759579121013
0.00742932130496
0.00727674123988
0.00713522367913
0.0070040070505
0.00688351267614
0.00677442994475
0.00667710467148
0.00659130560442
0.00651628669304
0.00645121171831
0.00639519804418
0.00634753561067
0.00630804559314
0.00627717208101
0.00625585027645
0.00624505297172
0.00624501329364
0.00625433218323
0.00883196100763
0.00848303355789
0.00816058856427
0.00787189787462
0.00761847439856
0.00739700093744
0.00720173655399
0.00702703653995
0.00686893495237
0.00672547700762
0.00659613432687
0.00648090498772
0.00637960268303
0.00629153756074
0.00621576892504
0.00615100137356
0.00609596461722
0.00604982327482
0.00601242531059
0.00598441593436
0.00596709063268
0.00596184198059
0.00596916960442
0.00598748701035
0.0088129972249
0.00841659604018
0.00804084651513
0.00770018885806
0.00740106479546
0.00714231897306
0.00691821718208
0.00672191773933
0.00654790908333
0.00639286786123
0.00625524317536
0.00613429777733
0.00602927417937
0.00593920745942
0.00586255970129
0.00579758450593
0.00574275927319
0.00569713856881
0.00566064247692
0.00563420670905
0.00561964647783
0.00561902413294
0.00563339714831
0.00566114456641
0.00878158038969
0.00831227220112
0.00786396187255
0.00746051129335
0.00711168953399
0.00681580336997
0.00656489248722
0.0063495601063
0.0061621052312
0.00599761718952
0.00585349191547
0.00572827209689
0.00562083660194
0.00552956746124
0.00545240497621
0.00538722996343
0.00533226289491
0.00528645670085
0.00524982833135
0.00522366542714
0.0052104491171
0.00521320556803
0.00523399850261
0.00527159674269
0.00872987076224
0.00814846225001
0.0076019864536
0.00712477724908
0.00672521480307
0.0063961166084
0.00612396517974
0.00589509159454
0.00569896247011
0.00552898497246
0.00538159698275
0.00525488383226
0.00514715454097
0.00505623647774
0.00497962912565
0.00491484421977
0.00485985044645
0.00481349974808
0.00477590103387
0.00474870344724
0.00473513901563
0.00473947331466
0.00476535702023
0.00481279251684
0.00863895750844
0.0078811080667
0.0072059969996
0.00664975884387
0.00620655352089
0.00585529143235
0.00557281353801
0.00533972611022
0.00514248410233
0.00497309627137
0.00482742586556
0.00470326123671
0.00459843036218
0.00451037102049
0.00443618737745
0.00437306259408
0.00431873980288
0.00427196758573
0.00423290824015
0.00420351068968
0.00418772614505
0.00419119632643
0.00421968591393
0.00427558606486
0.0084585308968
0.00742000828825
0.0065938224241
0.00597274883744
0.00550939859202
0.00515800450771
0.00488296720768
0.00465936280013
0.00447160534755
0.00431120514665
0.00417413306226
0.00405804796149
0.00396062134659
0.0038790200014
0.00381006269978
0.00375070459985
0.00369853427253
0.00365220707506
0.00361186376502
0.00357962105637
0.00355997680421
0.00355983494998
0.00358718460966
0.00364760289526
0.00803515991387
0.00658441855697
0.00563968762167
0.00501254808779
0.00457794325102
0.00426140933225
0.00401825402128
0.00382180117653
0.00365707259375
0.00351659792357
0.00339709904399
0.00329650753581
0.0032125409302
0.0031422873552
0.00308249562506
0.00303010140187
0.0029827048206
0.00293891370615
0.00289872538152
0.00286418730229
0.00284010615116
0.00283441984225
0.00285671123618
0.00291481760149
0.00686497313954
0.00506561233537
0.00419437129171
0.0036864651606
0.00335311371199
0.00311420933385
0.00293053182515
0.00278139375803
0.00265602177209
0.00254933362433
0.00245912118523
0.00238376086994
0.00232118574581
0.00226873070182
0.0022234864389
0.00218277623549
0.00214453720624
0.00210743293425
0.00207120220199
0.00203739558506
0.00201073344122
0.00200009777609
0.00201572847454
0.00206435304808
0.00377446370101
0.00264224528493
0.00220838202522
0.00195786997626
0.00178724477856
0.00166052092549
0.00156128086617
0.00148071668041
0.00141385020526
0.00135795727758
0.00131152835682
0.00127328563914
0.00124168594084
0.00121494176093
0.0011912269545
0.00116893574189
0.00114683357072
0.00112405615459
0.00110006890009
0.00107518619529
0.00105309816523
0.00104326510641
0.00105513980169
0.001088870662
0.000439700186759
0.000278699118366
0.00022912748973
0.000203501885832
0.00018591896032
0.000172912640143
0.000163069776207
0.000155577274341
0.000149886984418
0.000145614027022
0.000142437796765
0.000140072649354
0.000138278738534
0.00013685289193
0.000135632298368
0.00013449025301
0.000133357473457
0.000132194922435
0.000131035432354
0.000130066628984
0.000129785715054
0.000130867594125
0.000133484476682
0.000137028954109
0.00827847666172
0.00827394697393
0.00826414104934
0.00824790272709
0.00822377146392
0.00818998943229
0.00814451207673
0.00808504939608
0.00800912647184
0.0079141603875
0.00779752883843
0.00765661812498
0.007488838645
0.00729160880551
0.00706231693643
0.00679826450427
0.00649658997041
0.00615420383324
0.00576774458937
0.00533351708864
0.0048474278733
0.00430497869243
0.00370105724531
0.00302827106923
0.00828417859742
0.00827944451107
0.00826918160716
0.00825223366224
0.00822715521546
0.00819221145901
0.00814538074128
0.00808439110387
0.00800678371091
0.00790999503564
0.00779143295238
0.00764853125788
0.00747877227012
0.00727967864767
0.00704878988626
0.00678362993229
0.00648166383566
0.00614028642955
0.0057568729086
0.0053288560347
0.00485386673001
0.00433000626873
0.0037556042424
0.00312627088074
0.00829525039738
0.0082900776177
0.00827888002505
0.00826049440037
0.00823350153853
0.00819621492437
0.00814666534147
0.00808262483303
0.00800167247584
0.0079012868736
0.00777893671565
0.00763214956929
0.00745854839482
0.00725586036273
0.00702191829217
0.00675467282975
0.00645222424659
0.00611291366956
0.00573550898157
0.00531949347893
0.0048654955567
0.00437579169505
0.00385279986339
0.00329349768066
0.00831034432842
0.00830452032415
0.00829198348908
0.00827151683929
0.00824172106662
0.00820099047992
0.00814745633181
0.00807897927233
0.00799321062651
0.00788769972357
0.00776000716998
0.0076077964132
0.00742889180619
0.00722131199413
0.00698330936669
0.00671344865096
0.00641073421797
0.00607481799277
0.00570631796578
0.00530726636789
0.0048816883551
0.0044361140645
0.00397458283604
0.00349214707969
0.00831138970353
0.00830555451905
0.00829300212181
0.00827250869281
0.00824266282482
0.00820185202708
0.0081482150468
0.00807962829714
0.00799376026522
0.0078881729722
0.00776043175718
0.00760819904786
0.00742929469718
0.00722173020592
0.00698375122293
0.00671391997944
0.00641123813762
0.00607535384971
0.00570687913742
0.0053078373637
0.00488224668511
0.00443663009814
0.00397501613419
0.00349245559028
0.00829611431103
0.0082909182997
0.00827968517838
0.00826125498779
0.00823420659056
0.00819685027927
0.00814722100127
0.00808309974272
0.00800207603412
0.00790163598906
0.00777925120392
0.00763244868104
0.00745884866885
0.00725617380226
0.00702225203916
0.00675503227536
0.00645261310528
0.0061133333591
0.00573595720881
0.00531996188738
0.00486597024348
0.00437625087563
0.00385320656928
0.00329379457446
0.0082847354105
0.00827998043114
0.00826968675129
0.00825270311725
0.00822758499631
0.00819259600142
0.00814571624607
0.00808467825662
0.00800702874526
0.00791020804513
0.00779162568888
0.00764871523417
0.00747895758068
0.00727987294869
0.00704899809491
0.00678385570413
0.00648191003675
0.00614055467268
0.00575716304835
0.00532916465879
0.00485418716982
0.00433032643782
0.00375590072122
0.00312649942574
0.00827866799465
0.00827412984171
0.00826431195591
0.00824806037719
0.0082239150279
0.00819011754789
0.0081446238416
0.00808514525062
0.00800920852068
0.00791423195485
0.00779759379046
0.00765668027805
0.00748890137019
0.00729167471823
0.00706238779027
0.00679834159567
0.00649667438414
0.00615429624635
0.00576784523816
0.0053336251364
0.00484754152757
0.00430509422087
0.00370116705844
0.003028359197
0.000439701043664
0.000278732533966
0.000229237014411
0.000203649728077
0.000186040124643
0.000172984672619
0.000163102578827
0.000155587735048
0.000149887937028
0.000145612458022
0.000142437287916
0.000140074697725
0.000138283561282
0.000136860144684
0.0001356415245
0.00013450100198
0.000133369763645
0.000132208572087
0.000131050505413
0.000130082996603
0.000129803199052
0.000130885377753
0.000133500737482
0.000137042304939
0.00377448284149
0.00264242805271
0.00220927839008
0.00195975977599
0.00178948635289
0.00166239072361
0.0015625316882
0.00148144933314
0.00141424905842
0.00135816846197
0.00131164441437
0.00127336163886
0.00124175522645
0.00121502189901
0.0011913246657
0.00116905279725
0.00114697197088
0.00112421453311
0.00110024607428
0.00107537746971
0.00105330721392
0.00104349557987
0.00105537587133
0.00108908860866
0.00686541051207
0.00506740987562
0.00419787506528
0.00369121306163
0.00335792371525
0.0031181124006
0.00293323125261
0.00278307050689
0.002656996006
0.00254987991153
0.00245943045486
0.00238395475115
0.00232133896861
0.00226888562518
0.00222366376367
0.00218298412827
0.00214477798709
0.0021077055544
0.00207150404127
0.00203772586185
0.00201109140864
0.00200047593005
0.00201610751526
0.00206470429706
0.00803599905619
0.00658736228173
0.00564464911349
0.00501865166771
0.00458389128713
0.00426624301168
0.00402168119423
0.0038240081444
0.0036584078791
0.00351738008804
0.0033975610574
0.00329680418831
0.00321276989667
0.00314250566846
0.00308273382482
0.00303037354177
0.00298301478498
0.0029392610279
0.00289910754666
0.00286460983005
0.00284056375756
0.00283489209575
0.00285717663668
0.00291524898153
0.00845943721801
0.00742308232143
0.0065988141914
0.00597873192077
0.00551520403804
0.00516279239422
0.00488645652897
0.00466168857105
0.00447306729847
0.00431209866559
0.00417468262306
0.00405841298021
0.00396090462561
0.00387928405494
0.00381034336175
0.00375101972843
0.00369889044212
0.0036526061548
0.00361230394436
0.00358010617652
0.00356049788605
0.00356036945647
0.00358770893906
0.00364808998915
0.00863973685143
0.00788372643421
0.00721022301149
0.00665482155284
0.00621151886546
0.00585947821944
0.0055759605542
0.00534190141642
0.00514390622607
0.00497400136451
0.00482800713719
0.0047036609222
0.0045987452827
0.0045106631738
0.00443649381581
0.00437340377487
0.00431912547094
0.00427240100874
0.00423338945332
0.00420403804034
0.00418828847466
0.00419177275732
0.00422025189641
0.00427611495646
0.00873047238726
0.00815047353972
0.00760524392823
0.00712871916349
0.00672915443747
0.00639953205449
0.00612662415474
0.00589700430218
0.00570026665863
0.00552985113305
0.00538217861656
0.00525529661975
0.00514748510892
0.00505654290171
0.00497994850477
0.00491519897068
0.00486025250775
0.00481395401065
0.00477640780088
0.00474925769355
0.00473572852268
0.00474007807415
0.00476595251762
0.00481335367456
0.00878202819485
0.00831375672244
0.00786637629353
0.00746347344469
0.00711472001117
0.00681851702634
0.00656709022043
0.0063512118238
0.00616328324923
0.00599843412765
0.00585406185179
0.00572869103199
0.00562117570942
0.0055298813019
0.00545273026576
0.00538759017226
0.00533267196571
0.00528692119652
0.0052503484403
0.00522423503576
0.0052110549454
0.0052138275779
0.00523461326329
0.0052721809984
0.00881334062153
0.00841771076635
0.00804265363826
0.00770243046359
0.00740341340273
0.007144496325
0.00692005727693
0.00672336639288
0.00654899088698
0.00639364992601
0.00625580719925
0.00613472189286
0.00602962312435
0.00593952814268
0.00586288886974
0.00579794677494
0.00574316996968
0.00569760564426
0.00566116690918
0.00563478222222
0.00562025916535
0.00561965389398
0.00563402151209
0.00566174239194
0.008832248897
0.00848392878442
0.00816200980178
0.00787366022119
0.00762035544114
0.00739880483893
0.00720332922748
0.00702835104822
0.00686996177309
0.00672624836613
0.00659670653416
0.00648134176648
0.00637996295958
0.00629186849641
0.00621610364848
0.00615136543544
0.00609637459741
0.0060502882989
0.00601294761187
0.00598498981829
0.00596770215861
0.00596247121121
0.00596979531101
0.00598809011963
0.00884169042602
0.00852228324012
0.00823961018063
0.00799468753403
0.0077829640183
0.00759733009085
0.00743074397449
0.00727797441456
0.00713623077192
0.00700479082103
0.00688410826024
0.00677488931339
0.00667748221493
0.00659164833884
0.00651663028117
0.00645157924965
0.00639560712892
0.00634799667356
0.00630856196788
0.00627773919985
0.00625645467662
0.00624567534204
0.0062456344846
0.00625493446472
0.00884126441899
0.00853535433154
0.00828274187843
0.00807628320939
0.00790339207612
0.00775197033039
0.00761308285653
0.00748164489303
0.00735589475786
0.00723623687334
0.00712401300188
0.00702054981505
0.00692665553411
0.00684248729925
0.00676766716102
0.00670150654318
0.00664339195369
0.00659296131377
0.00655005615272
0.00651501116239
0.0064885439752
0.00647139678501
0.00646371410899
0.00646433176026
0.00882592701982
0.0085197448344
0.00829409179271
0.00812569357488
0.00799084602565
0.00787207499267
0.00775894155295
0.00764693043152
0.00753553743531
0.00742633041646
0.00732145540495
0.00722273452218
0.00713133458882
0.00704772413502
0.0069718443305
0.00690333607298
0.00684177274313
0.00678690274633
0.0067389020221
0.006698108685
0.00666517222546
0.00664076070775
0.00662504301694
0.0066170946639
0.00877898427921
0.00846646770117
0.00827565669275
0.00815017730115
0.00805386857485
0.00796568475739
0.00787538037524
0.00777997394403
0.00768056859734
0.00757989034917
0.00748075082069
0.00738532845289
0.00729499453486
0.00721041970788
0.00713182184647
0.00705914353985
0.00699227343545
0.00693121111631
0.00687618598098
0.00682784386532
0.00678691847897
0.00675413252773
0.00672976962845
0.00671314123569
0.00864691550114
0.00836660891077
0.0082364273474
0.00816097959439
0.00810181889261
0.00804006220071
0.00796820891027
0.00788572818752
0.00779544865728
0.00770105229806
0.00760575759895
0.00751188269707
0.00742087588948
0.00733352981997
0.00725021689815
0.00717118385144
0.00709665664517
0.0070269861806
0.00696273169199
0.00690470393265
0.0068539280413
0.00681132936438
0.00677740250155
0.00675169950569
0.00831674995669
0.00824927431825
0.00820290885438
0.00817385532238
0.00814389624396
0.00810108666903
0.00804183551898
0.00796805621642
0.00788387338448
0.00779344574699
0.00770002585208
0.00760581926258
0.00751219440088
0.00741997886694
0.0073297138032
0.00724185605194
0.00715693556656
0.00707578158182
0.00699938627371
0.00692903204577
0.00686609361391
0.00681178105648
0.00676692243275
0.00673133321075
0.00820172779093
0.00819853041678
0.00819931112358
0.00819845324604
0.00818481621808
0.00815177464104
0.0080989499825
0.00802982361784
0.0079489687464
0.00786038508734
0.00776695202743
0.00767052357804
0.00757225304678
0.00747291798225
0.00737316737105
0.00727370453393
0.00717541830281
0.00707948325138
0.00698748102462
0.00690139864956
0.00682323868045
0.00675463875274
0.00669677005295
0.00664976323613
0.00819626682441
0.00820955302986
0.0082257672553
0.00823343813988
0.00822345319881
0.00819214025329
0.0081407901879
0.00807322154977
0.00799355393182
0.00790505612307
0.00780991142325
0.00770945014982
0.00760450938869
0.00749574495795
0.0073838577911
0.00726975507148
0.00715467451096
0.00704029285802
0.00692880062819
0.00682286019016
0.0067253290834
0.0066388352382
0.00656470801298
0.00650348639835
0.00823997530666
0.00825248738885
0.0082662272269
0.008269553538
0.0082551025033
0.00822073543947
0.00816807726418
0.00810029371811
0.00802042684
0.00793067415691
0.00783235572514
0.0077261926019
0.00761264414944
0.00749218413299
0.00736549660703
0.00723362345285
0.00709810136201
0.00696109029186
0.00682545607308
0.00669472572405
0.00657278230764
0.00646312984461
0.00636761854599
0.00628742167185
0.00829158828558
0.00829807097758
0.00830280947495
0.00829702096258
0.00827542883586
0.00823669462233
0.00818200753605
0.00811338547527
0.00803255690682
0.00794056610618
0.00783785109502
0.0077245130237
0.00760060255812
0.00746634934913
0.00732232926629
0.00716961248473
0.007009928383
0.00684582946864
0.00668080823071
0.00651926521037
0.00636614564116
0.00622601070746
0.00610148113017
0.00599434466769
0.00832827553127
0.00832879933887
0.0083247927944
0.00831067101622
0.00828302799969
0.00824088637207
0.00818470730124
0.00811528794904
0.00803310544678
0.0079381497172
0.00783005414244
0.00770833179556
0.00757260398827
0.00742278310117
0.00725921945025
0.00708286057568
0.00689544659187
0.00669972041681
0.00649960397181
0.00630020150929
0.0061073969379
0.00592676190491
0.00576215050768
0.00561604127606
0.00834351238488
0.00834001634796
0.00833018790483
0.00831077596508
0.00827962983071
0.00823582133667
0.00817905919661
0.00810907384355
0.00802529705354
0.00792684083624
0.00781264682498
0.0076816818956
0.00753311466524
0.00736645730566
0.00718169668337
0.00697946333973
0.00676124776257
0.0065296546919
0.00628865493779
0.0060436597256
0.00580115149167
0.00556749635126
0.00534844123382
0.00514746984485
0.00834093531505
0.00833541950809
0.00832278996573
0.00830110065829
0.0082688144147
0.00822483596476
0.00816820404187
0.00809780044328
0.00801224126914
0.00790993944407
0.00778925174992
0.00764863676254
0.00748678704018
0.00730273302845
0.00709595518648
0.00686654808364
0.00661543853567
0.00634466485103
0.00605769325727
0.00575961934837
0.00545700590062
0.00515685858317
0.00486726336743
0.0045934485244
0.00832788304687
0.00832173383043
0.00830839307081
0.00828646284085
0.00825455932786
0.00821130197552
0.00815517049473
0.00808439964315
0.00799698793312
0.00789079916422
0.00776369592783
0.00761366477429
0.00743890934849
0.00723791703854
0.00700954105562
0.00675313748169
0.00646875547297
0.00615740356044
0.0058213936788
0.00546470806001
0.00509330199417
0.00471509364893
0.00433898618717
0.00397174323457
0.000138669049255
0.00013986455437
0.000145836348171
0.000153020673233
0.00112003179976
0.00114653340917
0.00122081527699
0.00126379174775
0.00211605071694
0.00217130323948
0.00224765942823
0.00229832670371
0.00296920384754
0.00301634940968
0.00307611413342
0.00311151828774
0.00369258034399
0.00371731248187
0.00375505267344
0.00377332587295
0.00430507786218
0.00430682037423
0.00432383845974
0.00432958591635
0.00482641831473
0.00480930841778
0.00480943619481
0.00480721582568
0.00527205784111
0.00524100593099
0.00522858989122
0.00522130984414
0.00565167219048
0.00561173393331
0.0055911337185
0.00558023350494
0.00597072464234
0.00592660481822
0.00590006149266
0.00588655351955
0.00623254985429
0.00618714289989
0.00615760402029
0.00614321655134
0.0064391265023
0.00639576488306
0.00636587088212
0.00635167511975
0.00659116646395
0.00655326811918
0.00652554407334
0.00651240924869
0.0066885107925
0.00665955844434
0.00663646849961
0.00662518469757
0.00673032012321
0.00671393548018
0.00669789508181
0.0066891701418
0.00671502720464
0.00671507516272
0.00670844456444
0.00670288256937
0.00664002530235
0.0066607240373
0.00666586399978
0.00666392996134
0.00650106678142
0.00654706433878
0.00656645798363
0.00656849887023
0.00629127807574
0.00636773251145
0.00640412485371
0.00641049831881
0.00600022979694
0.00611242937523
0.00616891870198
0.00618028368873
0.00561452597293
0.0057657374494
0.00584528947246
0.00586303474401
0.005122035778
0.0053081752467
0.00541106988659
0.00543720080711
0.00452008379389
0.00472178525108
0.00483997546396
0.0048735882295
0.00382267064141
0.00399338619183
0.00410464543449
0.00413311433674
0.000128757021482
0.000129581943426
0.000127671961
0.00013092120465
0.00116685984385
0.00119551343717
0.00118625788948
0.00122079331926
0.00221255576902
0.00229635320439
0.00231007556828
0.00234656568382
0.00306351877727
0.00319383323823
0.00324331522528
0.00326718978501
0.00287684711341
0.0020847915136
0.0011046569485
0.000125565600472
0.00265555838702
0.00192482655659
0.00103356797585
0.000120331831276
0.00245421005088
0.00175715808699
0.000928965204941
0.000113446373512
0.00232944154497
0.00164653955061
0.000854870043894
0.000107522001813
0.00232948456715
0.00164653434762
0.000854830181489
0.00010752385631
0.00245431710734
0.00175714490339
0.000928863426796
0.000113448552122
0.00265569795189
0.00192482164111
0.00103345833915
0.000120335736763
0.00287702225328
0.00208484875689
0.00110463355301
0.000125574616839
0.00306374271192
0.00221269404393
0.00116691741687
0.000128780050595
0.00319405694172
0.0022965821374
0.0011957286912
0.000129608769564
0.0032435711159
0.0023103057412
0.00118644107148
0.0001276801781
0.00326735303533
0.00234668589383
0.00122086676256
0.000130923169894
0.00413331945883
0.00410490426671
0.00399362120086
0.00382294871949
0.0048738349699
0.00484025476097
0.00472206111923
0.00452038450668
0.00543748771984
0.00541139285881
0.00530850326922
0.00512237951292
0.00586335782095
0.00584565296709
0.00576611599374
0.005614918196
0.0061806400499
0.0061693158828
0.00611284864367
0.00600066497852
0.00641088305555
0.00640454974072
0.00636818377205
0.00629174730619
0.0065689036734
0.00656690472889
0.00654754097449
0.00650156276892
0.00666434637819
0.00666632669432
0.0066612206695
0.00664054271439
0.00670330421486
0.00670891789043
0.00671558748668
0.0067155619985
0.0066895925252
0.00669837443414
0.00671445937939
0.00673086916191
0.00662560420541
0.00663694944798
0.00666008923851
0.00668907077657
0.00651282221143
0.0065260220576
0.006553800498
0.00659173336623
0.0063520777232
0.00636634086387
0.00639629406302
0.00643969647015
0.00614360476803
0.00615806154917
0.00618766447675
0.00623311906249
0.00588692405919
0.00590050228528
0.00592711395439
0.00597128853443
0.00558058296178
0.00559155406512
0.00561222579525
0.00565222467956
0.00522163275623
0.00522897994524
0.00524147053753
0.00527259047603
0.00480750485104
0.00480979033434
0.00480973902709
0.00482692153861
0.00432983624246
0.00432415096575
0.00430721018982
0.00430554438461
0.00377353201231
0.003755317404
0.00371765496441
0.00369300454803
0.00311167609101
0.0030763253586
0.00301663623474
0.00296957244306
0.00229843459237
0.00224781142847
0.00217152102515
0.00211634397726
0.00126384994478
0.00122089772665
0.00114665091717
0.0011202062132
0.000153022143642
0.000145837348399
0.00013986948152
0.000138678440775
0.000137455701359
0.000134147911112
0.000137990718137
0.000151157507481
0.00119386561254
0.00112551568565
0.00118634727599
0.00123910852702
0.00223641282384
0.00216529168741
0.00219514432373
0.00226332606254
0.00308999491844
0.00302120279563
0.00302466669505
0.0030767548569
0.00379974927271
0.00372955001148
0.0037143647096
0.00374551355234
0.00439957561379
0.00432632077471
0.00429758447963
0.00431127149252
0.00491096040359
0.00483507162847
0.00479674542047
0.00479745396833
0.00534744878758
0.00527050518832
0.00522584422041
0.00521668525193
0.00571762137978
0.00564179569999
0.00559384331228
0.00557823914731
0.00602688206811
0.00595459625494
0.00590610098422
0.00588671964735
0.00627854290005
0.0062123082591
0.00616577167498
0.00614482507644
0.00647447885185
0.0064168417789
0.00637459690837
0.00635400542413
0.00661550623178
0.00656904024879
0.00653331476589
0.00651480402376
0.00670157884468
0.00666890114218
0.00664187536059
0.00662705069307
0.00673185323808
0.00671565123779
0.00669951511233
0.00668993471632
0.00670463575868
0.0067076924034
0.00670469768361
0.00670193936676
0.00661721492507
0.00664240842601
0.00665490221178
0.00666060587637
0.00646560039967
0.00651582367733
0.00654622706408
0.00656207884971
0.00624421955997
0.00632213290863
0.00637277749891
0.0064003686776
0.00594585678164
0.00605315151587
0.00612580977215
0.00616628248692
0.00556180792155
0.00569758690658
0.00579263063581
0.00584605940981
0.00508284466704
0.00524056459366
0.00535536385799
0.00541983429929
0.00450266899494
0.00466396252879
0.00478935616087
0.00485972532112
0.00382584528593
0.00394812400822
0.00406034829244
0.00412574592174
0.000119750795667
0.000124526737622
0.000128671665631
0.000131615832761
0.00114519886137
0.00117371255919
0.00119745434614
0.00121530507937
0.00220017867614
0.00226411228602
0.00231938151897
0.00235132471347
0.00306672236163
0.00314825845679
0.00322654770074
0.00327102026652
0.00295052258932
0.002116866392
0.00110242360018
0.000115503503914
0.00284473010845
0.00204104970524
0.0010640088569
0.000112549420231
0.0027765212372