/*--------------------------------*- C++ -*----------------------------------*\
| =========                 |                                                 |
| \\      /  F ield         | foam-extend: Open Source CFD                    |
|  \\    /   O peration     | Version:     3.2                                |
|   \\  /    A nd           | Web:         http://www.foam-extend.org         |
|    \\/     M anipulation  | For copyright notice see file Copyright         |
\*---------------------------------------------------------------------------*/
FoamFile
{
    version     2.0;
    format      ascii;
    class       volScalarField;
    location    "1";
    object      p;
}
// * * * * * * * * * * * * * * * * * * * * * * * * * * * * * * * * * * * * * //

dimensions      [1 -1 -2 0 0 0 0];

internalField   nonuniform List<scalar> 
3200
(
-3.60524924067
-3.45805871949
-3.31139380251
-3.16527493097
-3.01962092441
-2.87438293687
-2.72951408194
-2.58497172287
-2.44071890242
-2.29672406714
-2.15296092651
-2.00940853644
-1.8660516516
-1.72287852822
-1.57988048772
-1.43705883681
-1.29442254862
-1.15198608377
-1.00977218316
-0.867826236366
-0.726240566407
-0.585158688924
-0.444462183544
-0.30495975988
-3.60534596851
-3.45844071008
-3.31204207824
-3.16617203862
-3.02075787291
-2.87575235339
-2.73111101516
-2.586793824
-2.44276648333
-2.29900039971
-2.1554725926
-2.01216579043
-1.86906926322
-1.72617831768
-1.58349406072
-1.44102971888
-1.29880930726
-1.15687388621
-1.01528285645
-0.874118319092
-0.733496059912
-0.593500224121
-0.454176241572
-0.317408039866
-3.60549205714
-3.45898135349
-3.31295316687
-3.16743100873
-3.02235213386
-2.87767171845
-2.73334840282
-2.58934522399
-2.44563076582
-2.30217953791
-2.15897160909
-2.01599200838
-1.87323213588
-1.73069144052
-1.58837569427
-1.44630057835
-1.30449038614
-1.1629864848
-1.02185282944
-0.881169361942
-0.741055981153
-0.601581538971
-0.462948439439
-0.327763429144
-3.60566118459
-3.45960119821
-3.3139968766
-3.16887266717
-3.02417716345
-2.87986841815
-2.73590848352
-2.59226332901
-2.44890410899
-2.30580880673
-2.1629612544
-2.02034845185
-1.87796241332
-1.73580556343
-1.593887777
-1.4522243627
-1.31084255514
-1.16978186461
-1.02910337354
-0.888884487393
-0.749240158842
-0.610227296987
-0.472056858987
-0.337226694413
-3.60585121219
-3.46029275183
-3.31516057481
-3.1704792757
-3.02621029023
-2.88231500952
-2.73875938559
-2.59551222328
-2.45254591295
-2.3098416438
-2.16738823398
-2.02517552142
-1.88319561058
-1.74145158863
-1.59995693186
-1.45872887193
-1.31779143695
-1.17718362886
-1.03696048748
-0.897189097947
-0.757963790365
-0.619323880833
-0.481428722498
-0.346359370881
-3.60606014373
-3.46105126674
-3.31643645513
-3.17223968989
-3.02843746223
-2.88499475854
-2.74188113615
-2.5990688259
-2.45653164369
-2.31425258933
-2.17222398644
-2.03043911997
-1.88889250787
-1.74758692448
-1.60653558564
-1.46575712553
-1.32527410688
-1.18511959243
-1.04533918341
-0.905987058441
-0.767131453281
-0.628789746351
-0.491063158965
-0.355626434151
-3.60628286768
-3.4618687324
-3.31781370102
-3.17414170903
-3.03084483255
-2.88789111108
-2.74525308629
-2.60290710212
-2.46083107603
-2.31900947464
-2.1774348945
-2.03610282008
-1.8950115733
-1.75416521982
-1.61357489508
-1.47325878246
-1.33323872442
-1.19354138611
-1.05420157448
-0.915259694967
-0.7767608537
-0.638702330399
-0.501139706838
-0.365449684587
-3.60650032455
-3.46273203715
-3.31928034379
-3.1761723916
-3.03341736384
-2.89098614753
-2.74885502897
-2.60700441684
-2.46541692956
-2.32407935756
-2.18298456683
-2.04212945244
-1.90151424808
-1.76114488094
-1.62103173427
-1.48119070117
-1.34164240811
-1.20240926118
-1.06351726144
-0.924994884261
-0.786869545289
-0.649122750292
-0.511779996898
-0.37601611861
-3.60668794089
-3.46363535531
-3.3208332861
-3.17832344503
-3.03614056472
-2.89426078776
-2.75266498918
-2.61133714239
-2.47026337229
-2.32943323694
-2.18884046077
-2.04848361907
-1.90836413814
-1.76848819845
-1.62886677129
-1.48951389639
-1.35044797975
-1.21168946079
-1.07325913025
-0.935177068596
-0.797459480147
-0.660078216704
-0.523038983706
-0.387373793908
-3.60705877047
-3.46467113718
-3.32249202987
-3.18059441206
-3.03900397362
-2.89769844346
-2.75666216858
-2.61588177959
-2.47534496128
-2.33504376737
-2.19497330542
-2.05513298682
-1.91552616129
-1.77615893751
-1.63704213609
-1.49818990557
-1.35961944564
-1.2213501171
-1.08340026727
-0.945785417724
-0.808516091574
-0.671562087475
-0.534918584914
-0.399501735317
-3.60763143777
-3.46580371736
-3.32423909402
-3.1829710075
-3.04199325822
-2.90128332233
-2.7608277423
-2.62061631707
-2.48063742936
-2.34088405151
-2.20135385042
-2.06204681261
-1.92296706468
-1.78412191503
-1.64552231942
-1.50718320251
-1.3691222178
-1.23135855247
-1.09391042345
-0.956792632261
-0.820013991702
-0.683548579924
-0.547389835941
-0.412345917732
-3.60807623851
-3.46692761181
-3.32603777716
-3.18542857807
-3.04508799272
-2.90499700209
-2.76514318984
-2.62551949729
-2.48611702874
-2.3469291571
-2.20795481788
-2.06919551873
-1.93065603399
-1.79234507016
-1.65427485255
-1.51646123208
-1.37892303363
-1.24168090688
-1.10475535302
-0.968164219864
-0.831918083551
-0.695998393164
-0.560402134672
-0.425834172285
-3.6084774034
-3.46806127975
-3.32787999978
-3.18795323434
-3.04827150043
-2.9088208832
-2.76958993999
-2.63057235446
-2.49176236334
-2.35315542819
-2.21475109645
-2.07655236001
-1.93856542845
-1.80080017562
-1.66327020096
-1.52599286996
-1.38898896048
-1.2522819536
-1.11589659116
-0.979857244578
-0.844180120811
-0.708855828304
-0.573885380529
-0.439885263258
-3.6088716112
-3.46921010796
-3.32975830738
-3.19053529422
-3.05153257933
-2.9127404215
-2.77415001743
-2.6357556336
-2.49755341717
-2.35954133771
-2.22172029895
-2.08409441085
-1.94667116416
-1.80946172401
-1.67248117821
-1.53574877312
-1.39928787584
-1.26312579382
-1.12729292634
-0.99182224708
-0.856740371913
-0.722050945833
-0.587759267064
-0.45440866249
-3.60926671329
-3.47037513744
-3.33166923051
-3.19316719151
-3.05486097379
-2.91674332601
-2.77880835182
-2.64105206438
-2.50347222719
-2.36606850689
-2.22884313605
-2.0918013842
-1.95495188306
-1.81830699242
-1.68188327245
-1.54570195524
-1.40978941445
-1.27417748216
-1.13890323522
-1.00400915125
-0.869535616765
-0.735505959079
-0.601936675435
-0.469298550653
-3.60966557172
-3.47155700381
-3.3336104948
-3.19584277591
-3.0582471081
-2.92081827689
-2.78355262344
-2.64644798937
-2.50950366254
-2.37272068529
-2.23610247795
-2.0996553234
-1.96338876133
-1.82731607853
-1.69145503388
-1.55582872626
-1.42046651961
-1.28540498962
-1.15068853516
-1.01637023857
-0.882505868584
-0.74914389064
-0.616320398542
-0.484440468246
-3.61006870495
-3.47275390439
-3.33557821165
-3.19855646475
-3.06168338768
-2.92495572471
-2.78837178673
-2.65193107895
-2.51563425352
-2.37948357177
-2.24348345324
-2.10764093882
-1.97196612338
-1.83647278626
-1.70117940675
-1.56611039979
-1.43129754389
-1.29678161848
-1.16261417788
-1.0288594973
-0.895589890433
-0.762882607313
-0.630800719671
-0.499691230863
-3.61047631113
-3.47396436244
-3.33756871703
-3.2013025548
-3.06516213403
-2.92914631112
-2.79325521652
-2.6574898431
-2.5218520713
-2.38634515593
-2.25097424682
-2.11574678786
-1.98067293718
-1.84576642905
-1.71104572909
-1.57653558305
-1.44226896026
-1.30828951452
-1.17465464881
-1.04143897491
-0.908731750076
-0.776640316444
-0.645263084686
-0.514890463865
-3.61088908191
-3.47518754577
-3.33957857556
-3.20407528299
-3.06867561631
-2.93338094484
-2.79819306024
-2.66311427269
-2.5281474175
-2.39329647057
-2.25856691286
-2.12396610648
-1.989503801
-1.85519302188
-1.72105128677
-1.58710235637
-1.45337863514
-1.31992448765
-1.18680056642
-1.05408903613
-0.921894446318
-0.790350238513
-0.659597507
-0.529866563824
-3.61130919199
-3.47642418981
-3.34160530978
-3.20686974817
-3.07221719218
-2.93765214494
-2.8031776008
-2.66879690466
-2.53451348749
-2.40033169877
-2.26625692173
-2.132296065
-1.99845801332
-1.86475440025
-1.7312007719
-1.5978183598
-1.46463688207
-1.33169842231
-1.19906293454
-1.06681511805
-0.935068740115
-0.803976287306
-0.673716720367
-0.544447737679
-3.6117450521
-3.47767481751
-3.34364460308
-3.20968065793
-3.07578076531
-2.94195381836
-2.80820295644
-2.67453227957
-2.54094541227
-2.40744685076
-2.27404165809
-2.1407361344
-2.00753794757
-1.87445680246
-1.74150532966
-1.60870072184
-1.47606761398
-1.34364209323
-1.21147805327
-1.07965637846
-0.948291512152
-0.817543244602
-0.687612285356
-0.558558795092
-3.61224968805
-3.478945998
-3.34568596847
-3.21249810686
-3.07935699112
-2.94627813211
-2.81326242867
-2.68031495154
-2.54743919171
-2.41464010221
-2.28192260279
-2.1492927118
-2.01675718612
-1.88432411351
-1.75200351045
-1.61980869221
-1.48775885271
-1.35588180685
-1.22422164553
-1.09284885206
-0.961862968962
-0.831390734735
-0.701584628598
-0.572368645249
-3.61289681222
-3.48028060999
-3.34774180661
-3.21532708455
-3.08294382666
-2.95062088982
-2.81834927461
-2.68613609676
-2.55398355728
-2.42189749955
-2.28988242247
-2.1579441587
-2.02608838208
-1.89432127657
-1.76264925461
-1.63107897824
-1.49961814516
-1.36828109216
-1.23708751262
-1.10606962314
-0.975335671462
-0.845151481081
-0.715756909415
-0.586832648669
-3.61294789457
-3.48144113726
-3.34968939402
-3.21809472059
-3.08649898891
-2.95495085144
-2.82343847757
-2.69197281802
-2.5605575055
-2.42920036339
-2.29790786495
-2.16668803381
-2.03554888744
-1.90449924808
-1.77354838619
-1.64270619294
-1.51198438599
-1.38139480303
-1.25095179715
-1.12067153456
-0.990600851524
-0.860830916005
-0.731419237883
-0.602091400677
-3.60977158424
-3.47153736361
-3.3337994337
-3.19659638313
-3.05983526339
-2.92346916685
-2.78745382618
-2.65174744396
-2.51631267355
-2.38111641394
-2.2461294867
-2.11132651702
-1.97668581625
-1.84218961158
-1.7078265161
-1.57359212732
-1.43948237209
-1.3054951162
-1.17164549038
-1.0379738244
-0.904542713492
-0.771445482552
-0.638889363181
-0.50735356414
-3.60916334857
-3.46968918269
-3.33071727849
-3.19228354948
-3.05429644462
-2.9167089214
-2.77947607901
-2.64255565196
-2.50591001086
-2.36950596062
-2.23331444976
-2.09731047635
-1.96147296465
-1.82578479501
-1.69023598205
-1.55482540763
-1.41955198146
-1.28441565517
-1.14943424675
-1.01464614104
-0.880111313171
-0.745956211128
-0.612444142897
-0.480038796464
-3.60797182695
-3.46606909981
-3.32468069663
-3.18383727585
-3.04344903289
-2.90346801394
-2.76384808552
-2.62454624666
-2.48552454152
-2.34674974263
-2.20819314361
-2.06983044584
-1.93164171607
-1.79361108064
-1.65572892784
-1.51799404325
-1.38040864051
-1.24297905905
-1.10572708488
-0.968701867711
-0.832003975074
-0.695834871536
-0.560512862347
-0.426318811334
-3.60627781625
-3.46091931048
-3.31608578244
-3.17180092591
-3.02797775146
-2.88456724269
-2.74152194232
-2.59879827692
-2.45635834324
-2.31416969816
-2.17220546092
-2.03044469183
-1.88887318595
-1.74748291906
-1.60627441183
-1.46526327284
-1.32447910239
-1.18396488294
-1.0437810987
-0.904007942595
-0.764740982961
-0.6260932853
-0.487990827155
-0.3497810899
-3.60627427065
-3.46091240916
-3.31607988521
-3.17179871417
-3.02797946253
-2.88457179307
-2.74152826152
-2.59880583088
-2.45636731381
-2.314180658
-2.17221907483
-2.03046163104
-1.88889379631
-1.74750713786
-1.6063022082
-1.46529481838
-1.32451442626
-1.18400389022
-1.0438235832
-0.904054169476
-0.764792189248
-0.626150964365
-0.488057031488
-0.349857784104
-3.6079682907
-3.46606159554
-3.3246732215
-3.18383256462
-3.04344769807
-2.90346924492
-2.76385094052
-2.62455023143
-2.4855297147
-2.3467564701
-2.20820194791
-2.06984189683
-1.93165618627
-1.79362855045
-1.6557492994
-1.51801733645
-1.38043483234
-1.24300820918
-1.10575932222
-0.968737630458
-0.832044316139
-0.695880727671
-0.560564173698
-0.426373929953
-3.60916019821
-3.46968224124
-3.33071004072
-3.19227834789
-3.05429393974
-2.91670857204
-2.77947715348
-2.64255770424
-2.505912954
-2.36950994371
-2.23331977727
-2.09731748929
-1.96148190143
-1.82579567327
-1.69024874646
-1.5548400068
-1.41956844016
-1.28443407596
-1.14945486549
-1.01466919413
-0.880137166934
-0.745984889556
-0.612475445725
-0.48007121617
-3.60977020229
-3.4715343261
-3.33379630535
-3.196594091
-3.05983406994
-2.92346887077
-2.78745413869
-2.65174815943
-2.51631372006
-2.38111782488
-2.24613135404
-2.11132895266
-1.97668888631
-1.84219334252
-1.70783086761
-1.57359713351
-1.43948799252
-1.30550149692
-1.1716526459
-1.03798193997
-0.904551594797
-0.771455336161
-0.638899636234
-0.507364112724
-3.61294741294
-3.48144341724
-3.34969297924
-3.21810017041
-3.08650552893
-2.95495808012
-2.82344642389
-2.69198128501
-2.56056651115
-2.42920982841
-2.2979177572
-2.16669828865
-2.03555946506
-1.90451013753
-1.77355955478
-1.64271767612
-1.51199615867
-1.38140696257
-1.25096444925
-1.12068480287
-0.990614850783
-0.860845652612
-0.731434671982
-0.602107807056
-3.61289586389
-3.48027764989
-3.34774281467
-3.21533150964
-3.08295058002
-2.95062884851
-2.81835804337
-2.68614517873
-2.55399271043
-2.42190645825
-2.28989096361
-2.15795206771
-2.02609549225
-1.89432749442
-1.76265452884
-1.63108327571
-1.49962178519
-1.3682844099
-1.23709083169
-1.10607345118
-0.975340538933
-0.845157773709
-0.71576482125
-0.58684292078
-3.61224857207
-3.47894749503
-3.34569127903
-3.2125058902
-3.0793662075
-2.94628796844
-2.81327240611
-2.68032460044
-2.54744815652
-2.41464802442
-2.28192913653
-2.14929753543
-2.0167600801
-1.88432497202
-1.75200232068
-1.61980559128
-1.48775420645
-1.35587613356
-1.22421572534
-1.09284350007
-0.96185889155
-0.831388582162
-0.701585190259
-0.572373230751
-3.61174581498
-3.47767861954
-3.34365161307
-3.20968974959
-3.07579082643
-2.94196401227
-2.80821272545
-2.6745411476
-2.54095296512
-2.40745264559
-2.27404524014
-2.14073708548
-2.00753597647
-1.87445175079
-1.74149724755
-1.60868991216
-1.47605470277
-1.34362799095
-1.21146388408
-1.07964329399
-0.948280587258
-0.817535421826
-0.68760850401
-0.558560262465
-3.61131041182
-3.47642835731
-3.34161228515
-3.20687842188
-3.07222642146
-2.93766105461
-2.80318553447
-2.66880335879
-2.534518066
-2.40033396265
-2.26625635292
-2.13229217515
-1.99845042727
-1.86474301469
-1.731185752
-1.59780016109
-1.4646163763
-1.33167682222
-1.19904166515
-1.06679569334
-0.935052561921
-0.803964556028
-0.673710428165
-0.544447720095
-3.61089006771
-3.47519090319
-3.3395842406
-3.20408234339
-3.06868303864
-2.93338776574
-2.79819843194
-2.66311753731
-2.52814814052
-2.39329426606
-2.2585612867
-2.12395653978
-1.98948999222
-1.85517499671
-1.72102937216
-1.58707721016
-1.45335129663
-1.31989630079
-1.18677317584
-1.0540642428
-0.921873958091
-0.790335540265
-0.659589632635
-0.529865969159
-3.61047701
-3.47396683654
-3.33757310837
-3.20130830341
-3.06516834625
-2.92915191698
-2.79325905468
-2.65749092503
-2.52184974652
-2.38633899585
-2.25096381571
-2.11573166729
-1.98065298536
-1.84574188797
-1.71101721396
-1.57650397496
-1.4422353494
-1.30825530755
-1.17462156977
-1.04140900644
-0.908706929929
-0.776622427065
-0.645253374212
-0.514889140321
-3.61006922653
-3.47275585918
-3.33558194567
-3.19856174419
-3.0616894903
-2.92496149321
-2.78837576899
-2.65193189177
-2.51563090563
-2.37947543289
-2.24347005266
-2.10762195003
-1.97194152848
-1.8364430446
-1.7011453564
-1.5660730993
-1.43125822736
-1.29674174349
-1.16257549173
-1.02882412971
-0.895560166569
-0.762860753294
-0.630788361362
-0.499688491016
-3.60966594599
-3.47155855886
-3.33361380149
-3.1958478853
-3.05825347095
-2.9208247357
-2.78355761138
-2.64644988498
-2.50950116218
-2.37271289347
-2.23608876388
-2.09963527751
-1.96336233439
-1.82728368401
-1.69141752917
-1.55578728465
-1.4204225671
-1.28536014623
-1.15064469352
-1.01632965739
-0.882471124779
-0.749117687423
-0.616304856936
-0.484435798
-3.60926691488
-3.47037623725
-3.33167202088
-3.19317199548
-3.05486742062
-2.91675035524
-2.77881442519
-2.64105553072
-2.50347164122
-2.36606274824
-2.22883134152
-2.09178292595
-1.95492646139
-1.8182747748
-1.68184493078
-1.54565864032
-1.40974268945
-1.27412927532
-1.13885569402
-1.00396464905
-0.869496929413
-0.73547613615
-0.601918301883
-0.46929204155
-3.60887163974
-3.46921077594
-3.32976059476
-3.19053976775
-3.05153908484
-2.91274802895
-2.77415727168
-2.63576093429
-2.49755529701
-2.35953853685
-2.22171172979
-2.08407918688
-1.9466487072
-1.80943190168
-1.67244441132
-1.53570607931
-1.39924091938
-1.2630767238
-1.12724411966
-0.991776167205
-0.856699830672
-0.722019274693
-0.587739271872
-0.45440087019
-3.60847729012
-3.4680616656
-3.32788199911
-3.18795761448
-3.04827832391
-2.90882936994
-2.76959872251
-2.63057988533
-2.49176717127
-2.35315617191
-2.21474653121
-2.07654138506
-1.93854723659
-1.80077440489
-1.66323707165
-1.52595328093
-1.38894456114
-1.25223497578
-1.11584943502
-0.979812366435
-0.844140324201
-0.708824414172
-0.573865158227
-0.439876900101
-3.60807600474
-3.46692792889
-3.32603981294
-3.18543323895
-3.04509551614
-2.9050067601
-2.76515391577
-2.62552969568
-2.48612524226
-2.34693400439
-2.20795496389
-2.0691897294
-1.93064333463
-1.7923249254
-1.65424732745
-1.51642713526
-1.37888394087
-1.2416389534
-1.10471282163
-0.968123423571
-0.831881655608
-0.695969315606
-0.56038306192
-0.425825998697
-3.60763091658
-3.46580411759
-3.32424148992
-3.18297633095
-3.04200186727
-2.90129470735
-2.76084074644
-2.6206295314
-2.48064944551
-2.34089349178
-2.20135935457
-2.06204710202
-1.92296106236
-1.78410893679
-1.64550229212
-1.5071568282
-1.36909095105
-1.23132434683
-1.09387534496
-0.956758722456
-0.819983500453
-0.683524071753
-0.547373722805
-0.412339232531
-3.60705742886
-3.46467165033
-3.32249502591
-3.18060071486
-3.03901397395
-2.89771170712
-2.75667765156
-2.61589819341
-2.47536098241
-2.3350580726
-2.19498457975
-2.05513997599
-1.9155277751
-1.77615439967
-1.63703121346
-1.49817316288
-1.35959820933
-1.22132608356
-1.08337519803
-0.945761003249
-0.808494116826
-0.671544574958
-0.53490755597
-0.399498391459
-3.60668646754
-3.46363622655
-3.32083715656
-3.17833095828
-3.03615213922
-2.89427602902
-2.75268297172
-2.61135672264
-2.47028335068
-2.32945239018
-2.18885757899
-2.04849755376
-1.90837384957
-1.76849288191
-1.62886608822
-1.4895082321
-1.35043846264
-1.21167756276
-1.07324620044
-0.935164385472
-0.797448388852
-0.660070116501
-0.523035465881
-0.387376089797
-3.6064995063
-3.46273368107
-3.31928519048
-3.17618121096
-3.03343051838
-2.89100326386
-2.74887530488
-2.60702687426
-2.46544052115
-2.32410300566
-2.18300722636
-2.04215014493
-1.90153206002
-1.76115902133
-1.62104177537
-1.48119687566
-1.34164563462
-1.20241071616
-1.06351793676
-0.924995558642
-0.786871071912
-0.649126124438
-0.511786299691
-0.376026350171
-3.60628237131
-3.46187090663
-3.31781941379
-3.17415170478
-3.03085935314
-2.88790976029
-2.74527517601
-2.60293183178
-2.46085757705
-2.31903686091
-2.17746235001
-2.03612959607
-1.89503691494
-1.75418839174
-1.61359540653
-1.47327672607
-1.33325481085
-1.1935565409
-1.05421641764
-0.915274528604
-0.776776060121
-0.638718465875
-0.501157515045
-0.36546982099
-3.60605975494
-3.4610536428
-3.31644266967
-3.1722504697
-3.02845286287
-2.88501431663
-2.74190425065
-2.59909485586
-2.45655990121
-2.31428243948
-2.17225492191
-2.03047068052
-1.88892415807
-1.74761796201
-1.60656541005
-1.46578573731
-1.32530214103
-1.18514773413
-1.04536768817
-0.906015856902
-0.767160476863
-0.628819176896
-0.491093317397
-0.355657768922
-3.60585070412
-3.46029480468
-3.31516662374
-3.17049011892
-3.02622579736
-2.88233457745
-2.73878243615
-2.59553820004
-2.45257432853
-2.30987221301
-2.16742082377
-2.02521002928
-1.88323167296
-1.74148844455
-1.59999391984
-1.45876603102
-1.31782933577
-1.17722279325
-1.03700089545
-0.897230374331
-0.758005643316
-0.619366059573
-0.481471194473
-0.346402569208
-3.6056602912
-3.4596022259
-3.31400181605
-3.16888255558
-3.02419175706
-2.87988691771
-2.73593019612
-2.59228773875
-2.44893098797
-2.30583823234
-2.16299349916
-2.02038370364
-1.87800035756
-1.73584543371
-1.59392897847
-1.45226698977
-1.31088717563
-1.16982887503
-1.02915257236
-0.88893541105
-0.749292393584
-0.610280427723
-0.472110692183
-0.337281816248
-3.6054904899
-3.45898052108
-3.31295586951
-3.16743875
-3.02236465503
-2.87768799766
-2.73336753816
-2.58936672807
-2.44565461673
-2.30220613427
-2.15900151259
-2.0160255322
-1.87326906647
-1.73073111745
-1.58841764329
-1.44634505564
-1.30453792925
-1.16303730986
-1.0219067314
-0.881225930029
-0.741114912042
-0.601642541881
-0.463011575533
-0.327829474151
-3.60534341308
-3.45843721406
-3.3120414899
-3.1661764966
-3.02076723077
-2.87576536763
-2.73112655576
-2.58681135311
-2.44278610377
-2.29902268169
-2.15549819407
-2.01219513344
-1.86910227549
-1.72621454919
-1.58353331819
-1.44107232538
-1.29885570677
-1.15692415285
-1.01533680871
-0.874175743198
-0.733556975568
-0.593564797233
-0.45424552428
-0.31748294203
-3.60524590345
-3.45805291257
-3.31139002973
-3.16527578201
-3.01962638911
-2.87439170818
-2.72952495147
-2.58498409676
-2.44073294202
-2.29674037988
-2.1529801783
-2.00943127316
-1.8660780321
-1.72290832294
-1.57991372205
-1.43709587081
-1.29446362119
-1.15203122087
-1.00982125207
-0.867879154442
-0.72629814385
-0.585221999476
-0.444533899887
-0.30504192071
-0.474243849724
-0.345385982488
-0.213511531431
0.0886418324514
-0.460180563466
-0.334322301776
-0.209140339261
-0.0247645523391
-0.44676010528
-0.322953227812
-0.195152645325
-0.0379115516502
-0.434360395828
-0.312068853275
-0.183217967353
-0.0385257974591
-0.420696157929
-0.298248439408
-0.169205127438
-0.001066415703
-0.405937992415
-0.282669729363
-0.15479673678
0.0623420440541
-0.390482378632
-0.266280670717
-0.140374093289
0.143599824862
-0.374730369129
-0.249659033573
-0.125879353655
0.241625200054
-0.358949582842
-0.233089432771
-0.111158123106
0.360859891223
-0.343332839461
-0.21674697051
-0.0962831773497
0.513196420564
-0.32803452824
-0.20078258926
-0.0815334991754
0.718573631687
-0.313169936996
-0.185389885635
-0.0665841651093
0.985617079744
-0.298852642893
-0.170788184164
-0.0510680764444
1.3216960253
-0.285178232421
-0.157139510972
-0.0344876820264
1.73141191132
-0.272235482012
-0.144593536611
-0.0163814643844
2.21790622685
-0.260108204133
-0.133281847721
0.00362201827177
2.78975311898
-0.248863770392
-0.123323235924
0.0259912678928
3.46138025299
-0.238523933561
-0.114824810217
0.0514677929789
4.25196085178
-0.228992358077
-0.107834329804
0.0810519452328
5.18704782511
-0.219962824857
-0.102123278557
0.116134164775
6.30255484652
-0.210878724996
-0.0966411149724
0.160786866556
7.64898567021
-0.201507684473
-0.0897294513931
0.230505487596
9.32403562838
-0.192396655707
-0.0783406920084
0.353672038134
11.4013113093
-0.184223591044
-0.0581211249616
0.604221758988
13.5525557765
0.0702098129553
0.656987902351
5.21297165629
26.042461779
-0.026478236731
0.271105342517
3.26280015191
21.6471011891
-0.0921805189811
0.0787657427113
1.81230983146
18.4185729519
-0.151419975023
0.0191515859485
1.23957177565
16.0061262998
-0.243811403854
-0.170682549234
-0.0993141160787
-0.0197076053088
-0.318061955722
-0.234026960438
-0.152207316499
-0.0673809631673
-0.369331066891
-0.277778287657
-0.187978502645
-0.0986140631274
-0.394972103727
-0.299713666933
-0.205962884115
-0.114129524328
-0.394983804489
-0.299725644825
-0.205974232873
-0.114141743274
-0.369365315743
-0.277813550991
-0.188011616613
-0.098649326703
-0.318120034353
-0.234084392226
-0.152260913933
-0.0674348803595
-0.243893989502
-0.170761142341
-0.0993887886003
-0.0197758080445
-0.151520951057
-0.0922836527314
-0.0265972811453
0.0701281537143
0.0188438937419
0.0784541105718
0.27048802429
0.656183969406
1.23664673393
1.80802054105
3.25570658086
5.20114613384
15.9788663458
18.385769194
21.6082856606
25.9912634526
13.5290842832
0.602482421644
-0.0582746282535
-0.184314711254
11.3816905971
0.352546195398
-0.0784423655121
-0.192480113503
9.30855987672
0.229783583037
-0.0898059738096
-0.201579478687
7.63693257478
0.160310562946
-0.0966952911075
-0.210936600015
6.29321535611
0.115815340107
-0.102159968004
-0.220006573279
5.17986428327
0.0808402819843
-0.107857668448
-0.229023305595
4.24646214059
0.0513279027567
-0.114837926993
-0.238543762638
3.45719826828
0.025901281604
-0.123328937746
-0.248874600044
2.78657581141
0.00356752881887
-0.133283032633
-0.260112431919
2.21549492979
-0.0164120476787
-0.144592322724
-0.272235442793
1.72961743221
-0.0345012918941
-0.157138109275
-0.28517618613
1.32042332814
-0.0510709338215
-0.170787915756
-0.298850290724
0.984800300841
-0.0665845131566
-0.185391403888
-0.313168347414
0.718034172304
-0.0815331142125
-0.200785980035
-0.328034024409
0.512903876072
-0.0962871792115
-0.216752069692
-0.34333378349
0.360704014774
-0.11116642184
-0.23309637734
-0.358952185585
0.241532146129
-0.12589121862
-0.249667893831
-0.374734554041
0.143541010204
-0.140389290905
-0.266291053486
-0.390487701708
0.0623003888777
-0.154814810795
-0.282681100221
-0.405943893315
-0.0011005395832
-0.169225313403
-0.298260716964
-0.420702550477
-0.0385567031605
-0.183240050122
-0.31208268598
-0.434368038198
-0.0379435309215
-0.195176012242
-0.322969183557
-0.446770043241
-0.0248091985489
-0.209163309288
-0.334340310131
-0.460194203296
0.0885627729698
-0.213535998419
-0.345405403024
-0.474261425266
224.131337665
105.413996688
28.6585756804
3.49347659017
240.178257828
120.601099874
33.3932864371
2.97419577921
254.573109451
132.88243995
39.3269576208
3.61760553169
267.742307982
144.514794578
45.4803710662
4.55666028305
279.98076132
155.716314797
52.0151637789
5.8360366942
291.559049115
166.608484
58.7709618427
7.4055835429
302.638904149
177.26324151
65.717018577
9.24840949073
313.31188788
187.696986024
72.8491707002
11.3555170281
323.64223153
197.901306292
80.1598754009
13.7400278806
333.687169359
207.88686682
87.6168253924
16.4081151992
343.500049639
217.696446006
95.1939649036
19.3348656711
353.123592889
227.367280974
102.885306448
22.4967018806
362.593706057
236.925548619
110.691110125
25.8811070162
371.943565547
246.395097236
118.616467117
29.4853083637
381.204002206
255.803683822
126.670679648
33.3119336541
390.40205991
265.178522595
134.862650553
37.3690074936
399.556920639
274.54200743
143.198665609
41.669196289
408.669866888
283.901484785
151.681456505
46.2322428252
417.72570013
293.258750456
160.317253792
51.0875966236
426.690732907
302.597457651
169.091936742
56.2645906837
435.489046246
311.871866273
177.974008129
61.7787409698
444.007010452
321.063043811
186.963396706
67.6460579059
451.90273895
330.03291509
196.074053107
73.8810030581
458.635418905
337.809561958
204.573936929
79.9065367979
273.156286291
207.994697727
138.158677843
72.7161239333
328.642486628
246.915537565
157.97131627
74.7281274253
382.967007293
285.683955354
178.937177285
78.4509693428
436.523391912
323.94719141
199.427314197
81.6082742523
531.348499593
465.45867165
398.169656287
328.994589112
606.818907454
530.326387847
452.566747201
372.807884788
658.477422536
574.837185033
489.905077173
402.98024789
684.79355084
597.526914172
508.930271644
418.365580617
684.783000891
597.515337373
508.917938515
418.352400942
658.446238485
574.802977634
489.86858262
402.941225243
606.76847661
530.270927373
452.507362835
372.744464152
531.280519688
465.38402067
398.0893554
328.909078163
436.439407887
382.875815358
328.544010457
273.051630781
323.850619937
285.580315269
246.804109418
207.876708849
199.325918462
178.828953136
157.856899734
138.038542642
81.5303082525
78.3670461077
74.6391541241
72.6181540224
79.8368493589
204.480081213
337.719317713
458.554148411
73.8198309021
195.987646145
329.948187148
451.823297566
67.5931725547
186.88517468
320.984960481
443.93201071
61.7334722532
177.903705752
311.800039948
435.418310342
56.2258702085
169.028348783
302.529452307
426.621116866
51.0544988976
160.259543361
293.194254047
417.657961524
46.2040993702
151.629678297
283.842260318
408.607483106
41.6453514841
143.152656995
274.488501372
399.500613173
37.3488180823
134.821821281
265.13001767
390.350820254
33.2948775739
126.634454778
255.759629432
381.157279012
29.4709682963
118.584393878
246.355114722
371.901062011
25.8691005976
110.662782218
236.889336513
362.555126841
22.4867866246
102.860427459
227.334632861
353.088715492
19.3268473032
95.1723987284
217.667225644
343.468699106
16.4018125748
87.5983351371
207.860881241
333.659153958
13.7353327122
80.1442874317
197.878262902
323.617303322
11.352145755
72.8363554413
187.676791026
313.289855483
9.24606311255
65.7067811341
177.245943608
302.619701984
7.40398880625
58.7630071106
166.5940335
291.542604084
5.83496255042
52.00905795
155.704337508
279.966836135
4.55595339262
45.4758137153
144.505088504
267.730920956
3.61719756356
39.3240820395
132.875536315
254.564958851
2.97397021353
33.3923948554
120.598079962
240.174554817
3.49306115901
28.6591962612
105.416037007
224.133396373
3374.19259842
3256.07817026
3137.76192679
3019.08837274
2900.1231628
2780.85204731
2661.27994313
2541.41291853
2421.25594057
2300.81275097
2180.08497216
2059.07128481
1937.76945331
1816.17634621
1694.28045326
1572.06152723
1449.49572248
1326.55493367
1203.20215227
1079.38326859
955.024195151
830.043465342
704.304110735
577.167745968
3373.89807424
3255.60092432
3137.10199264
3018.25059157
2899.10840449
2779.66209939
2659.91577478
2539.87446847
2419.54203605
2298.92106617
2178.01189484
2056.81177192
1935.31627042
1813.51898457
1691.40561398
1568.95434987
1446.13900323
1322.92627717
1199.27431742
1075.12587882
950.4080032
825.059956343
698.966870137
571.151101116
3373.51958762
3254.95477677
3136.1926025
3017.08537324
2897.69146069
2777.99776266
2658.00726646
2537.72360255
2417.14933195
2296.28615898
2175.13345594
2053.68659084
1931.93909157
1809.88258722
1687.50040409
1564.76929569
1441.6633046
1318.14747426
1194.17731575
1069.69675453
944.635294152
818.933744885
692.476046065
564.31279767
3373.09187433
3254.22208312
3135.15923544
3015.76016311
2896.07962805
2776.10507704
2655.83814183
2535.28042507
2414.43268017
2293.29606151
2171.87038675
2050.14888105
1928.12149102
1805.77908896
1683.10465546
1560.07228575
1436.65372381
1312.81353258
1188.50674161
1063.67820166
938.259289072
812.185866229
685.341881358