/*--------------------------------*- C++ -*----------------------------------*\
| =========                 |                                                 |
| \\      /  F ield         | foam-extend: Open Source CFD                    |
|  \\    /   O peration     | Version:     3.2                                |
|   \\  /    A nd           | Web:         http://www.foam-extend.org         |
|    \\/     M anipulation  | For copyright notice see file Copyright         |
\*---------------------------------------------------------------------------*/
FoamFile
{
    version     2.0;
    format      ascii;
    class       surfaceScalarField;
    location    "1";
    object      phi;
}
// * * * * * * * * * * * * * * * * * * * * * * * * * * * * * * * * * * * * * //

dimensions      [0 3 -1 0 0 0 0];

internalField   nonuniform List<scalar> 
6272
(
-3.14745509617e-06
8.11975689689e-07
-6.86583757486e-07
-3.90682396317e-06
9.20712485455e-07
-7.76282981983e-07
-4.67059780854e-06
1.10631147945e-06
-9.30465992934e-07
-5.45199307448e-06
1.35115328655e-06
-1.13479637465e-06
-6.26231244684e-06
1.64855309296e-06
-1.38424457581e-06
-7.11101823053e-06
1.99494628945e-06
-1.67615251213e-06
-8.00624873864e-06
2.3890937034e-06
-2.00983649161e-06
-8.95515857865e-06
2.83073546982e-06
-2.38551115933e-06
-9.96391913463e-06
3.31925158963e-06
-2.80319776436e-06
-1.10373791511e-05
3.85252095347e-06
-3.26176361839e-06
-1.21786236698e-05
4.42565864012e-06
-3.75780364185e-06
-1.3388357922e-05
5.02938061173e-06
-4.28407447323e-06
-1.4664290786e-05
5.64757944748e-06
-4.82711137248e-06
-1.60009140974e-05
6.25390992246e-06
-5.36362994455e-06
-1.73893429447e-05
6.80586019084e-06
-5.85416909803e-06
-1.8817418882e-05
7.23572543018e-06
-6.23344848893e-06
-2.02724897554e-05
7.43947391281e-06
-6.39750225753e-06
-2.1746915521e-05
7.2610998611e-06
-6.18486858008e-06
-2.32433976833e-05
6.46522127296e-06
-5.34927290219e-06
-2.47907740281e-05
4.72980617329e-06
-3.54163646536e-06
-2.64559189079e-05
1.65607796977e-06
-3.23811180111e-07
-2.83283413559e-05
-3.17601411804e-06
4.74760570522e-06
-3.05032925993e-05
-1.00270143033e-05
1.19397405465e-05
-1.89299265404e-05
2.10330507402e-05
-3.28143393292e-05
-2.89142827104e-06
9.07025291043e-07
-3.60719839951e-06
1.03195565743e-06
-4.32333611904e-06
1.2441470227e-06
-5.05058262548e-06
1.52243620644e-06
-5.79768064345e-06
1.85835445795e-06
-6.57139926298e-06
2.247239037e-06
-7.37703344002e-06
2.6871006301e-06
-8.21868313112e-06
3.17696274846e-06
-9.09915784631e-06
3.71526196437e-06
-1.00195906682e-05
4.29853729661e-06
-1.09790239754e-05
4.92009979253e-06
-1.19739206607e-05
5.56840741745e-06
-1.29977928666e-05
6.22476423143e-06
-1.404118296e-05
6.8601016261e-06
-1.50925827737e-05
7.43010124462e-06
-1.61401580427e-05
7.86750966004e-06
-1.71757440478e-05
8.07241848396e-06
-1.82024148933e-05
7.90049917399e-06
-1.92417411064e-05
7.13547445584e-06
-2.03517316349e-05
5.49228165734e-06
-2.16362786609e-05
2.61905782756e-06
-2.32392055615e-05
-1.86398954736e-06
-2.52482815565e-05
-8.27306298732e-06
-1.68347569349e-05
-2.75163255619e-05
-2.59865720791e-06
9.68550133272e-07
-3.26358714975e-06
1.10717565143e-06
-3.92544763143e-06
1.34138219732e-06
-4.59225792974e-06
1.64615830555e-06
-5.26990348395e-06
2.01105736709e-06
-5.96228117182e-06
2.43019437544e-06
-6.67177328076e-06
2.90070868824e-06
-7.39943316975e-06
3.42073635073e-06
-8.14474426464e-06
3.98751584657e-06
-8.90518082538e-06
4.59592481465e-06
-9.67581973905e-06
5.2371511694e-06
-1.04489966797e-05
5.89716526667e-06
-1.12138691466e-05
6.55449011123e-06
-1.19566424556e-05
7.17749254821e-06
-1.26622731967e-05
7.72073375007e-06
-1.33162868641e-05
8.11811467721e-06
-1.39104826093e-05
8.27654805935e-06
-1.44480119953e-05
8.06339402186e-06
-1.49538554175e-05
7.28485325518e-06
-1.54859998025e-05
5.68922169258e-06
-1.61354193769e-05
2.95821326576e-06
-1.7008957863e-05
-1.27187463109e-06
-1.81473212783e-05
-7.3829758505e-06
-1.57326744679e-05
-1.94130169493e-05
-2.27866235801e-06
9.93746157306e-07
-2.88847222262e-06
1.14423635026e-06
-3.49240462174e-06
1.39645073532e-06
-4.09549120823e-06
1.72103940944e-06
-4.70055072764e-06
2.10544671756e-06
-5.30852657508e-06
2.54257212243e-06
-5.91891806888e-06
3.02868676659e-06
-6.52990996292e-06
3.56100048088e-06
-7.1379208099e-06
4.13540169778e-06
-7.73706037559e-06
4.74486598929e-06
-8.31885214352e-06
5.3782406866e-06
-8.87215647085e-06
6.0189436416e-06
-9.38274282916e-06
6.64281163143e-06
-9.83324407119e-06
7.2156722186e-06
-1.02055037718e-05
7.69134571388e-06
-1.0483918543e-05
8.00656413121e-06
-1.0658562726e-05
8.07462248025e-06
-1.0731763626e-05
7.77552957383e-06
-1.07323916786e-05
6.94242064428e-06
-1.07202294691e-05
5.35484510114e-06
-1.0788475805e-05
2.72828770247e-06
-1.10524192846e-05
-1.27868658845e-06
-1.16043738648e-05
-7.07027260648e-06
-1.50254181288e-05
-1.24649799928e-05
-1.93888882375e-06
9.80422586624e-07
-2.49092070509e-06
1.14237982345e-06
-3.03553744819e-06
1.40980154612e-06
-3.57428127755e-06
1.74824209352e-06
-4.10665516217e-06
2.14314612901e-06
-4.63066866556e-06
2.5864580894e-06
-5.14307483351e-06
3.07374598137e-06
-5.63952631371e-06
3.60140466913e-06
-6.11397955901e-06
4.16404344025e-06
-6.55775616702e-06
4.75259096283e-06
-6.95958410687e-06
5.35352080994e-06
-7.30569135254e-06
5.94770326525e-06
-7.57957432737e-06
6.50854646484e-06
-7.76226124913e-06
7.00013623563e-06
-7.83425621559e-06
7.37597368678e-06
-7.77951219473e-06
7.57624345404e-06
-7.58998950436e-06
7.52282067344e-06
-7.27333963387e-06
7.11201995074e-06
-6.86512817335e-06
6.20515763364e-06
-6.4381619674e-06
4.61918350631e-06
-6.10881427606e-06
2.11345643866e-06
-6.03444236846e-06
-1.61226848221e-06
-6.39864423148e-06
-6.93506975519e-06
-1.4194811017e-05
-7.3724919183e-06
-1.5856993995e-06
9.26650370618e-07
-2.07891871978e-06
1.102361624e-06
-2.56516406037e-06
1.3840682307e-06
-3.04152434412e-06
1.73135989399e-06
-3.50386843125e-06
2.12840230188e-06
-3.947468166e-06
2.56690707987e-06
-4.36673618559e-06
3.04216324517e-06
-4.7551329986e-06
3.54985104713e-06
-5.1046155575e-06
4.08340161792e-06
-5.40470896751e-06
4.63202090361e-06
-5.64248998681e-06
5.17998552514e-06
-5.80268404842e-06
5.70574625851e-06
-5.86769594148e-06
6.18061564619e-06
-5.81864223432e-06
6.56793492963e-06
-5.63711380383e-06
6.82212467774e-06
-5.30931201768e-06
6.88799842431e-06
-4.83202476771e-06
6.69828003105e-06
-4.22116965645e-06
6.1690055139e-06
-3.5236271315e-06
5.19290525687e-06
-2.82952427124e-06
3.6302112449e-06
-2.28277856112e-06
1.29423386951e-06
-2.08390109876e-06
-2.05834955715e-06
-2.48614051977e-06
-6.75114805305e-06
-1.30798667868e-05
-3.73493692926e-06
-1.22433079292e-06
8.30111348668e-07
-1.65999931448e-06
1.02706338971e-06
-2.09137644694e-06
1.32439107762e-06
-2.50962157521e-06
1.67624617648e-06
-2.90688251122e-06
2.06764802307e-06
-3.27607536886e-06
2.49130399069e-06
-3.60987879631e-06
2.94284422863e-06
-3.90012886534e-06
3.41743543423e-06
-4.13728031026e-06
3.90739236243e-06
-4.30989587262e-06
4.4005758225e-06
-4.40440973584e-06
4.87945453582e-06
-4.4053200632e-06
5.32057370726e-06
-4.2953955427e-06
5.69379638091e-06
-4.05715128399e-06
5.96249378267e-06
-3.67520640629e-06
6.08360869251e-06
-3.13999849216e-06
6.00803531152e-06
-2.45469112052e-06
5.68126745096e-06
-1.64404701444e-06
5.04135861969e-06
-7.6620841246e-07
4.01493581699e-06
7.39838030121e-08
2.50907097745e-06
7.13050637198e-07
3.95825994746e-07
9.24491852583e-07
-2.50490611254e-06
4.24013410443e-07
-6.45830778211e-06
-1.17363327345e-05
-1.04480267381e-06
-8.57761901368e-07
6.83708781711e-07
-1.2412498779e-06
9.23256035449e-07
-1.62447691698e-06
1.23903988324e-06
-1.9908946257e-06
1.5907080057e-06
-2.32959068982e-06
1.96877091038e-06
-2.63196762926e-06
2.36851236415e-06
-2.88971429172e-06
2.78637715046e-06
-3.09380162344e-06
3.21721533977e-06
-3.23394046154e-06
3.65237535001e-06
-3.29831724846e-06
4.07852129236e-06
-3.27337923936e-06
4.47674468444e-06
-3.1443131436e-06
4.82241736194e-06
-2.89563406386e-06
5.08500753959e-06
-2.51229567615e-06
5.2286355198e-06
-1.98281764124e-06
5.21395543126e-06
-1.30297551527e-06
4.99954378266e-06
-4.821740714e-07
4.54460821275e-06
4.47412208346e-07
3.81017733887e-06
1.41968182343e-06
2.75729630401e-06
2.32168207293e-06
1.34013353378e-06
2.98208898465e-06
-5.10797950578e-07
3.16770638438e-06
-2.91371628558e-06
2.59343069712e-06
-6.08116516829e-06
-1.02826872166e-05
1.02231736081e-06
-4.86170480715e-07
4.7776378085e-07
-8.32673716701e-07
8.0743903876e-07
-1.17669957341e-06
1.13826152039e-06
-1.49789099839e-06
1.48261364018e-06
-1.78466966547e-06
1.83961998204e-06
-2.02831084486e-06
2.20775991633e-06
-2.22031008256e-06
2.58420454184e-06
-2.35138679574e-06
2.96339425944e-06
-2.4110044238e-06
3.33578963479e-06
-2.3874874714e-06
3.6871234757e-06
-2.26807859662e-06
3.99770712193e-06
-2.03913845712e-06
4.24225256356e-06
-1.68743613442e-06
4.39072339852e-06
-1.20125021586e-06
4.40916812243e-06
-5.73040365612e-07
4.26251023391e-06
1.96387251201e-07
3.91794183972e-06
1.09233377585e-06
3.34884300119e-06
2.07777159432e-06
2.53867504789e-06
3.08301729115e-06
1.48155250584e-06
3.9940324437e-06
1.76226657902e-07
4.64200070281e-06
-1.39195444764e-06
4.800892577e-06
-3.28405057581e-06
4.20027005864e-06
-5.6674029308e-06
-8.82158560665e-06
2.62877992758e-06
-1.37463135638e-07
3.07334510273e-07
-4.56423715666e-07
6.90265984349e-07
-7.63675991372e-07
1.02558340563e-06
-1.04242280973e-06
1.35580429953e-06
-1.28226872144e-06
1.68622415025e-06
-1.47484997499e-06
2.01773291624e-06
-1.61155357687e-06
2.34780629509e-06
-1.68308442167e-06
2.67044916422e-06
-1.67913642925e-06
2.97548892466e-06
-1.5883741136e-06
3.24790734523e-06
-1.39908867224e-06
3.46774417307e-06
-1.09940178587e-06
3.60989252964e-06
-6.78343027697e-07
3.6452813639e-06
-1.27487983506e-07
3.54276025191e-06
5.56922656921e-07
3.27218441161e-06
1.3702049793e-06
2.80932099431e-06
2.29401867785e-06
2.14146771017e-06
3.28920043676e-06
1.27310056721e-06
4.28661261797e-06
2.28584431953e-07
5.17662503241e-06
-9.52693362125e-07
5.79984710012e-06
-2.2354604457e-06
5.9444817215e-06
-3.62849393585e-06
5.35963651976e-06
-5.25932497443e-06
-7.41884104205e-06
3.85292149786e-06
1.8787251789e-07
2.20891058549e-07
-1.1323706644e-07
5.82481802514e-07
-3.87621935278e-07
9.05901081978e-07
-6.27794592492e-07
1.21512833973e-06
-8.26531652599e-07
1.51537811679e-06
-9.76342733848e-07
1.80762368243e-06
-1.06867766025e-06
2.08898169601e-06
-1.09430925687e-06
2.35294609272e-06
-1.04345391452e-06
2.58896957459e-06
-9.05532023901e-07
2.7816954533e-06
-6.69904100789e-07
2.91114481734e-06
-3.26534912813e-07
2.95301998546e-06
1.33256497468e-07
2.87982151099e-06
7.15239574132e-07
2.6634440644e-06
1.4201725701e-06
2.27902404478e-06
2.24065326672e-06
1.71063966944e-06
3.1566903853e-06
9.58375866934e-07
4.12962155372e-06
4.56053792275e-08
5.0940548203e-06
-9.7641833528e-07
5.9485079621e-06
-2.03207934354e-06
6.54653021327e-06
-3.04097768093e-06
6.69283365298e-06
-3.96310719593e-06
6.15385168194e-06
-4.88714145903e-06
-6.11083081296e-06
4.74781653092e-06
5.00210416474e-07
1.72629329903e-07
2.0997240949e-07
4.92000208121e-07
-4.0262923508e-08
7.8878739021e-07
-2.50351673001e-07
1.06989873419e-06
-4.16561625093e-07
1.33654281725e-06
-5.33106616876e-07
1.5878174113e-06
-5.92366925089e-07
1.81979541454e-06
-5.85705735746e-07
2.02522754355e-06
-5.0404635369e-07
2.19312139337e-06
-3.37900294573e-07
2.30810787207e-06
-7.79139222508e-08
2.35051014649e-06
2.84380329945e-07
2.29699358481e-06
7.55721986357e-07
2.12202757912e-06
1.33979486734e-06
1.80071323916e-06
2.03542039575e-06
1.31324270558e-06
2.83397853721e-06
6.51300829224e-07
3.71579950637e-06
-1.73768759492e-07
4.64500791836e-06
-1.12219285204e-06
5.56244240041e-06
-2.11934557808e-06
6.37698594807e-06
-3.05752001689e-06
6.95645341455e-06
-3.81518903828e-06
7.12171695649e-06
-4.30530360367e-06
6.65184250253e-06
-4.57422542406e-06
-4.91859575496e-06
5.36721504573e-06
7.86210701103e-07
1.40391010605e-07
5.10027299659e-07
4.16419260045e-07
2.79225612757e-07
6.79752122322e-07
9.18716563598e-08
9.28179450006e-07
-5.03041281651e-08
1.15891949158e-06
-1.43061490834e-07
1.36860135631e-06
-1.80125786333e-07
1.55191697531e-06
-1.54009571917e-07
1.70078063956e-06
-5.66677558079e-08
1.80370498095e-06
1.20184950718e-07
1.84531251258e-06
3.84539727972e-07
1.80640269734e-06
7.43414900067e-07
1.66472268043e-06
1.20205294187e-06
1.39667906976e-06
1.76281499764e-06
9.80404776566e-07
2.4237553944e-06
4.0057893091e-07
3.1766050006e-06
-3.44614712865e-07
4.00392368041e-06
-1.23444123542e-06
4.87474501594e-06
-2.21546502878e-06
5.73829917851e-06
-3.19318079117e-06
6.51542912353e-06
-4.0314166151e-06
7.08860541084e-06
-4.57029905493e-06
7.29302547434e-06
-4.67529019084e-06
6.917851801e-06
-4.34622056527e-06
-3.86133269416e-06
5.7736415363e-06
1.04113695085e-06
1.16529447832e-07
7.82574481561e-07
3.52761677565e-07
5.69382759067e-07
5.81339692463e-07
3.99814376631e-07
7.9563576987e-07
2.74804480766e-07
9.89993002437e-07
1.97519908728e-07
1.15892235285e-06
1.72894823486e-07
1.29578348388e-06
2.07012566747e-07
1.39170444426e-06
3.06560177819e-07
1.43477504731e-06
4.78411965951e-07
1.4095953681e-06
7.2914578934e-07
1.29739089733e-06
1.06446391455e-06
1.07688233057e-06
1.48852211996e-06
7.26142401478e-07
2.00313190687e-06
2.2580887887e-07
2.60670965908e-06
-4.35874766003e-07
3.29282955329e-06
-1.25572103785e-06
4.0481396394e-06
-2.20582736423e-06
4.84870806145e-06
-3.22209720901e-06
5.65433150753e-06
-4.19371835038e-06
6.39994483453e-06
-4.95954604698e-06
6.98360276162e-06
-5.32291716472e-06
7.25391185698e-06
-5.09964527665e-06
7.0061831894e-06
-4.23575888749e-06
-2.96744332891e-06
6.03071509356e-06
1.26470495925e-06
9.7820165856e-08
1.02606572055e-06
2.9920526713e-07
8.29678218947e-07
4.9487444774e-07
6.74685303257e-07
6.76054064085e-07
5.61880887485e-07
8.35306918467e-07
4.93628861654e-07
9.6575893488e-07
4.73547184414e-07
1.05984493509e-06
5.06144890083e-07
1.10811585126e-06
5.96463667133e-07
1.0983469961e-06
7.49742535864e-07
1.01509259796e-06
9.71014995015e-07
8.39861377696e-07
1.26470043816e-06
5.52063299963e-07
1.63416767115e-06
1.30932888426e-07
2.08126191775e-06
-4.41207899427e-07
2.60567126634e-06
-1.17382706319e-06
3.20414568068e-06
-2.06062604286e-06
3.86907262157e-06
-3.06915772573e-06
4.58570119245e-06
-4.12807832914e-06
5.32694794525e-06
-5.11424231597e-06
6.04465605504e-06
-5.84531151206e-06
6.65534923707e-06
-6.08933636373e-06
7.02350096964e-06
-5.61003808677e-06
6.94704718944e-06
-4.28644538432e-06
-2.28472006533e-06
6.18811302971e-06
1.45803974379e-06
8.29118745435e-08
1.24057657345e-06
2.54875877103e-07
1.06064920959e-06
4.21057778898e-07
9.18420223093e-07
5.716571833e-07
8.14760382337e-07
6.98410335134e-07
7.51254991761e-07
7.93902234186e-07
7.30127019814e-07
8.50222060097e-07
7.5410470723e-07
8.57691064501e-07
8.26299962251e-07
8.03921771517e-07
9.50001258751e-07
6.73411862858e-07
1.12843123227e-06
4.47775477804e-07
1.36457660119e-06
1.06732341065e-07
1.66102775276e-06
-3.69977833718e-07
2.01989791329e-06
-9.99392398201e-07
2.4426626448e-06
-1.79027067741e-06
2.93010980536e-06
-2.73545838681e-06
3.48174264361e-06
-3.80107767598e-06
4.09396903889e-06
-4.91256524412e-06
4.75574988124e-06
-5.93927422651e-06
5.43979375146e-06
-6.68257534579e-06
6.08684217169e-06
-6.87853470223e-06
6.58378196761e-06
-6.23708867115e-06
6.73529239453e-06
-4.55469087473e-06
-1.89505498979e-06
6.2749011797e-06
1.62275522696e-06
7.13687882091e-08
1.42701841941e-06
2.19472037454e-07
1.26360997699e-06
3.60127021157e-07
1.13361956849e-06
4.83311701381e-07
1.03792357902e-06
5.80880781263e-07
9.77188619468e-07
6.45791731947e-07
9.52020526456e-07
6.70439253197e-07
9.63108448429e-07
6.45313992486e-07
1.01128122279e-06
5.58066280784e-07
1.09744525501e-06
3.93172769142e-07
1.22259715235e-06
1.32214748012e-07
1.38784481561e-06
-2.45143290945e-07
1.59462283203e-06
-7.59339269935e-07
1.84496633844e-06
-1.42790757576e-06
2.14203346546e-06
-2.2606417936e-06
2.4907752313e-06
-3.25208778277e-06
2.8984593403e-06
-4.37051194095e-06
3.3741159366e-06
-5.54294186843e-06
3.92534534865e-06
-6.63727565861e-06
4.55046061224e-06
-7.44557683204e-06
5.22244172622e-06
-7.67868593795e-06
5.86281072334e-06
-6.99508845065e-06
6.29959427657e-06
-5.09745212236e-06
-1.91071864779e-06
6.25027348892e-06
1.76047203259e-06
6.33248293819e-08
1.58659343142e-06
1.93072359102e-07
1.44023738199e-06
3.11812334846e-07
1.32327636388e-06
4.10532762419e-07
1.23633544615e-06
4.82301601437e-07
1.17880065521e-06
5.21439034685e-07
1.14936302056e-06
5.21258074822e-07
1.14633659355e-06
4.72806316723e-07
1.16787989872e-06
3.64006099292e-07
1.21206908245e-06
1.79446758733e-07
1.27706287259e-06
-9.93288401612e-08
1.36137757011e-06
-4.92918255999e-07
1.46438451939e-06
-1.02247468918e-06
1.58702780276e-06
-1.7070377801e-06
1.73306802253e-06
-2.55912172083e-06
1.91065288531e-06
-3.57760414618e-06
2.13418655512e-06
-4.73679004697e-06
2.42536775124e-06
-5.97079378062e-06
2.81180205407e-06
-7.15344079871e-06
3.32112696389e-06
-8.07689287629e-06
3.96697604042e-06
-8.43824877203e-06
4.72324094595e-06
-7.85611698913e-06
5.47274057247e-06
-5.94176835964e-06
-2.45540313517e-06
5.95855378888e-06
1.87223616342e-06
5.96101121871e-08
1.7199155991e-06
1.76192874455e-07
1.59178743853e-06
2.75184916328e-07
1.49016034496e-06
3.51331899892e-07
1.41483488484e-06
4.00178745536e-07
1.36337124621e-06
4.18399514849e-07
1.33217358521e-06
4.00622714887e-07
1.31691485202e-06
3.38759337006e-07
1.31278226007e-06
2.21261304518e-07
1.31458565345e-06
3.31243058281e-08
1.31698646193e-06
-2.43907619268e-07
1.31491359332e-06
-6.30581664962e-07
1.30424724208e-06
-1.14892201945e-06
1.28304590453e-06
-1.820056076e-06
1.25339675872e-06
-2.66048543624e-06
1.22409834565e-06
-3.67571460035e-06
1.21406813042e-06
-4.84989237505e-06
1.25535043552e-06
-6.13009719042e-06
1.39435602286e-06
-7.40445197888e-06
1.68851202575e-06
-8.47646614436e-06
2.19603846039e-06
-9.04444416343e-06
2.95943088075e-06
-8.71095021522e-06
3.9587046319e-06
-7.02425677574e-06
-3.59452593306e-06
5.04550199519e-06
1.95757938969e-06
6.23871902207e-08
1.82571436849e-06
1.70057843096e-07
1.71801297992e-06
2.4824813439e-07
1.63583191691e-06
3.01868797493e-07
1.5771458782e-06
3.29811943216e-07
1.53693819198e-06
3.31839526617e-07
1.50909963546e-06
3.03768490302e-07
1.48658127885e-06
2.38536953101e-07
1.46153791468e-06
1.25411022456e-07
1.42522352157e-06
-4.96789623599e-08
1.36817198982e-06
-3.04199192085e-07
1.28054149012e-06
-6.5844181106e-07
1.15293446611e-06
-1.1348173176e-06
9.77896492598e-07
-1.7563231506e-06
7.5227461051e-07
-2.54375522476e-06
4.80971481789e-07
-3.51054457772e-06
1.81986552289e-07
-4.65368433195e-06
-1.07917398329e-07
-5.93887432723e-06
-3.28506816443e-07
-7.27742309387e-06
-3.97124531289e-07
-8.49587449485e-06
-2.16658780979e-07
-9.30784593336e-06
3.20532660618e-07
-9.32566202631e-06
1.32083770065e-06
-8.09552843198e-06
-5.16609193875e-06
2.84714123759e-06
2.01229944667e-06
7.85431743152e-08
1.89888427396e-06
1.76624876585e-07
1.81619244793e-06
2.26492097131e-07
1.76008530055e-06
2.5567105639e-07
1.72534232418e-06
2.64123519345e-07
1.70359869962e-06
2.54803999411e-07
1.68649404889e-06
2.23596548084e-07
1.66456824141e-06
1.64575304586e-07
1.62725958198e-06
6.81431622641e-08
1.56225312456e-06
-7.79785395518e-08
1.45550120438e-06
-2.89476539429e-07
1.29131400746e-06
-5.84948047726e-07
1.05308203141e-06
-9.85838728082e-07
7.24648725044e-07
-1.51556318083e-06
2.9283019587e-07
-2.19788725705e-06
-2.48196929735e-07
-3.05346439413e-06
-8.90337454653e-07
-4.09304308658e-06
-1.60240012085e-06
-5.30531173947e-06
-2.32002520026e-06
-6.63424500784e-06
-2.94380815605e-06
-7.94210282078e-06
-3.3533929637e-06
-8.96472893634e-06
-3.41604368544e-06
-9.32569930858e-06
-2.93184018431e-06
-8.63740237604e-06
-6.55431186841e-06
-1.58094768772e-06
2.01975556203e-06
1.40136510207e-07
1.92529516316e-06
1.95178095984e-07
1.87934205176e-06
1.98104963402e-07
1.86036318694e-06
2.01714957607e-07
1.85958901767e-06
1.9319735499e-07
1.86505397954e-06
1.78726939291e-07
1.86760290371e-06
1.51414029022e-07
1.85630905597e-06
1.07134256682e-07
1.81874664057e-06
3.78224587222e-08
1.73942924456e-06
-6.57133773683e-08
1.59975995513e-06
-2.16015371017e-07
1.37753242375e-06
-4.28040961581e-07
1.0472147035e-06
-7.19875996537e-07
5.80630955517e-07
-1.11228114603e-06
-5.11283594059e-08
-1.62827178853e-06
-8.73780139661e-07
-2.29159162211e-06
-1.90292318733e-06
-3.12302138686e-06
-3.13068478983e-06
-4.13472556298e-06
-4.506011158e-06
-5.31357332181e-06
-5.92190046947e-06
-6.57797116796e-06
-7.24700636356e-06
-7.68884144397e-06
-8.38162485303e-06
-8.23754136532e-06
-9.15244612293e-06
-7.909498634e-06
-6.65145858683e-06
-9.08340212933e-06
1.93088587403e-06
3.1689348481e-07
1.87135780944e-06
2.09434007802e-07
1.89094598258e-06
1.34113756229e-07
1.92682449482e-06
1.22215529441e-07
1.97337940714e-06
1.03709577665e-07
2.01544728045e-06
9.43314603778e-08
2.04689304534e-06
7.81799577304e-08
2.05677122097e-06
5.59612692995e-08
2.03242874847e-06
2.13390446483e-08
1.95610720729e-06
-2.97577648108e-08
1.80533923855e-06
-1.05141096551e-07
1.55129236242e-06
-2.1338724407e-07
1.1582322678e-06
-3.65657785294e-07
5.8258944933e-07
-5.74873035681e-07
-2.26901040874e-07
-8.56335633983e-07
-1.32683896239e-06
-1.22837953458e-06
-2.77420670609e-06
-1.71137160828e-06
-4.61687352695e-06
-2.32672695004e-06
-6.8510473957e-06
-3.1132231906e-06
-9.34607969953e-06
-4.11562596732e-06
-1.18815339777e-05
-5.18415415125e-06
-1.43963841251e-05
-5.75133832263e-06
-1.69361529114e-05
-5.39630265443e-06
-4.57046453278e-06
-1.903469629e-05
1.54462376867e-06
1.73904789165e-06
1.85843317174e-06
1.96617449318e-06
2.05563386457e-06
2.13591233627e-06
2.20021489249e-06
2.24245924742e-06
2.2502337604e-06
2.20706142075e-06
2.08866006753e-06
1.86217688725e-06
1.48360514375e-06
8.9602150825e-07
2.72053940711e-08
-1.21336312885e-06
-2.93656845556e-06
-5.27480675925e-06
-8.39949965877e-06
-1.2526442838e-05
-1.77211027705e-05
-2.34820544975e-05
-2.88872998611e-05
-3.34636803315e-05
-3.61160811085e-06
1.86677937168e-07
4.95535874224e-09
-4.4242733278e-06
2.10338368026e-07
5.26183868146e-09
-5.25369137454e-06
2.49216692551e-07
5.60948014065e-09
-6.11529854139e-06
3.00222341778e-07
5.97261480488e-09
-7.02365084911e-06
3.62539677597e-07
6.32559338801e-09
-7.99219455029e-06
4.35764421844e-07
6.6441655619e-09
-9.03402873686e-06
5.19960674712e-07
6.90595147872e-09
-1.01619515953e-05
6.15482025079e-07
7.09155472537e-09
-1.1388920696e-05
7.22756899429e-07
7.18356906917e-09
-1.27279078122e-05
8.42118390501e-07
7.16513256901e-09
-1.41917223722e-05
9.73611133963e-07
7.02312066918e-09
-1.57923610657e-05
1.11671222481e-06
6.74002486694e-09
-1.75400548361e-05
1.26992149307e-06
6.30888135371e-09
-1.944159822e-05
1.43007201307e-06
5.71526102183e-09
-2.14973509593e-05
1.5911679512e-06
4.96891166602e-09
-2.36968258442e-05
1.74265051268e-06
4.07090113922e-09
-2.60119578078e-05
1.86671785417e-06
3.06291070842e-09
-2.83843897438e-05
1.9335164249e-06
1.95924478259e-09
-3.07062225078e-05
1.89430018676e-06
8.43596351707e-10
-3.27920569972e-05
1.67242043765e-06
-2.8754511283e-10
-3.43429767698e-05
1.15497771496e-06
-1.38709439311e-09
-3.49062448408e-05
1.89530731961e-07
-2.47480116266e-09
-3.37958373923e-05
-1.45477998076e-06
-3.4486047589e-09
-3.91847600869e-06
-4.05572426174e-09
-3.01677146647e-05
-3.56138117472e-06
3.70612339518e-07
-4.36768797858e-06
4.17569120941e-07
-5.18887790669e-06
4.95443498381e-07
-6.04092169743e-06
5.97776819319e-07
-6.93865636003e-06
7.22740468414e-07
-7.8955813541e-06
8.69399170879e-07
-8.92461123632e-06
1.03776831976e-06
-1.00382915127e-05
1.22842280099e-06
-1.12491257211e-05
1.44204124693e-06
-1.25694312231e-05
1.67904680913e-06
-1.40109860168e-05
1.93917489821e-06
-1.5584312669e-05
2.22089271538e-06
-1.72974500164e-05
2.52048714197e-06
-1.91540473369e-05
2.83062412808e-06
-2.11497428228e-05
3.13781949145e-06
-2.32670716706e-05
3.41877089379e-06
-2.54677986957e-05
3.63464011663e-06
-2.76790106447e-05
3.72133460022e-06
-2.97724348468e-05
3.57578792612e-06
-3.15366895331e-05
3.03905545309e-06
-3.26358003561e-05
1.87443126136e-06
-3.25529601297e-05
-2.5013523777e-07
-3.06063033841e-05
-3.72833003187e-06
-8.76812948449e-06
-2.6032629695e-05
-3.46062707934e-06
5.39564520795e-07
-4.25397496793e-06
6.0865199604e-07
-5.05918463313e-06
7.25074687905e-07
-5.89288733491e-06
8.78615034789e-07
-6.77014241244e-06
1.06609952325e-06
-7.70441998764e-06
1.28585777341e-06
-8.70828806817e-06
1.53768106283e-06
-9.79376526703e-06
1.82213842014e-06
-1.09724765896e-05
2.13984274269e-06
-1.22553756322e-05
2.4908414888e-06
-1.36522020773e-05
2.8739040012e-06
-1.51704668381e-05
3.2855407431e-06
-1.68138784479e-05
3.71850384591e-06
-1.85798345622e-05
4.15939107814e-06
-2.04551767334e-05
4.58460621104e-06
-2.24095345826e-05
4.95405318826e-06
-2.43851232912e-05
5.20148878442e-06
-2.62808674943e-05
5.2199815022e-06
-2.79288698987e-05
4.84044452168e-06
-2.90608469525e-05
3.80438072978e-06
-2.927375821e-05
1.74148606188e-06
-2.80385159215e-05
-1.80527776653e-06
-2.47977569547e-05
-7.25628767499e-06
-1.46798381658e-05
-1.91275903284e-05
-3.30927385296e-06
-4.08053236352e-06
-4.85961350383e-06
-5.66384469073e-06
-6.50837936789e-06
-7.40645773017e-06
-8.37008713749e-06
-9.41037981867e-06
-1.05375081523e-05
-1.17601365598e-05
-1.30844924016e-05
-1.45127392434e-05
-1.60405340898e-05
-1.76534604929e-05
-1.93208910789e-05
-2.09864365485e-05
-2.25557277516e-05
-2.38794687481e-05
-2.47306892363e-05
-2.47909846004e-05
-2.3672886825e-05
-2.10017520042e-05
-1.65551857969e-05
-1.04060827769e-05
-3.30262037734e-06
-5.49355016191e-07
6.96283930839e-07
-4.07334845146e-06
-6.19085502453e-07
7.86671828835e-07
-4.85308224067e-06
-7.362504956e-07
9.41644835546e-07
-5.65834978763e-06
-8.90573443749e-07
1.14680594708e-06
-6.50362694331e-06
-1.07881725146e-06
1.39705192815e-06
-7.40210591072e-06
-1.29924091596e-06
1.68964305364e-06
-8.36588732929e-06
-1.55157984057e-06
2.02383098924e-06
-9.4062830578e-06
-1.83635016282e-06
2.39977424468e-06
-1.05336021165e-05
-2.15412630234e-06
2.81744456425e-06
-1.17564622814e-05
-2.5049241895e-06
3.27568505008e-06
-1.30810320999e-05
-2.88748400782e-06
3.7710579242e-06
-1.45093913358e-05
-3.29829083756e-06
4.29630572519e-06
-1.60370314825e-05
-3.73008698357e-06
4.83796357507e-06
-1.76494455168e-05
-4.16946620084e-06
5.37275329463e-06
-1.93161591433e-05
-4.59282416356e-06
5.86120454152e-06
-2.0980814078e-05
-4.96011275814e-06
6.23814362231e-06
-2.25490378658e-05
-5.20518662309e-06
6.39970476247e-06
-2.38715716331e-05
-5.22121302959e-06
6.18460749037e-06
-2.47214028907e-05
-4.83929821504e-06
5.34675602515e-06
-2.47804789383e-05
-3.80110108527e-06
3.53732616223e-06
-2.36616476778e-05
-1.7366464957e-06
3.18423140355e-07
-2.09903469134e-05
1.81076752151e-06
-4.75293460643e-06
-1.6544192856e-05
7.26077829376e-06
-1.19433238489e-05
1.46812694185e-05
-2.10319467446e-05
-1.03971616892e-05
-3.45511719369e-06
-3.80468861621e-07
-4.24768901387e-06
-4.28040426359e-07
-5.05321984326e-06
-5.06623214587e-07
-5.88774270513e-06
-6.09702439594e-07
-6.76562820766e-06
-7.35394929769e-07
-7.70024961839e-06
-8.82702243648e-07
-8.70425285543e-06
-1.0515906619e-06
-9.78984288774e-06
-1.24258808835e-06
-1.09687132985e-05
-1.4563396899e-06
-1.22518110877e-05
-1.69323349742e-06
-1.36488516918e-05
-1.95297806613e-06
-1.51672932853e-05
-2.23401103351e-06
-1.68107227637e-05
-2.5326031794e-06
-1.85764225148e-05
-2.84140736543e-06
-2.04513199711e-05
-3.14693483414e-06
-2.24050106343e-05
-3.42592406927e-06
-2.43797047293e-05
-3.63957910594e-06
-2.62742830278e-05
-3.72392501279e-06
-2.79208456504e-05
-3.57600930316e-06
-2.90513185315e-05
-3.0370505049e-06
-2.92630696601e-05
-1.87048414178e-06
-2.80274112062e-05
2.55521564536e-07
-2.47876722446e-05
3.73424536292e-06
8.77307304825e-06
-1.91206423185e-05
-3.55738369439e-06
-1.96576020054e-07
-4.36296983617e-06
-2.20845901227e-07
-5.18435587495e-06
-2.60421130636e-07
-6.03703059615e-06
-3.12157617785e-07
-6.93529239292e-06
-3.75187001109e-07
-7.89252267716e-06
-4.4905260025e-07
-8.92169149432e-06
-5.33771426797e-07
-1.00354623236e-05
-6.29657431038e-07
-1.12463799902e-05
-7.37101897201e-07
-1.2566785673e-05
-8.56408562383e-07
-1.40084567748e-05
-9.87587880934e-07
-1.55818836003e-05
-1.13009546208e-06
-1.72950425361e-05
-1.28239978717e-06
-1.91515081322e-05
-1.441330305e-06
-2.11469312504e-05
-1.60088050585e-06
-2.32638381333e-05
-1.75052868572e-06
-2.54639364948e-05
-1.87251252737e-06
-2.76743005391e-05
-1.93708012731e-06
-2.97666563185e-05
-1.89556083063e-06
-3.15297380617e-05
-1.67145607843e-06
-3.26277978844e-05
-1.15188520215e-06
-3.2544479498e-05
-1.84402742653e-07
-3.05983735573e-05
1.46147683895e-06
3.92580947708e-06
-2.60268548679e-05
-3.61006666251e-06
-4.42245634142e-06
-5.25197234378e-06
-6.11383882468e-06
-7.02241372672e-06
-7.99109605252e-06
-9.03299908246e-06
-1.01609552291e-05
-1.1387946225e-05
-1.27269602128e-05
-1.4190803314e-05
-1.57914710321e-05
-1.75391627193e-05
-1.94406645377e-05
-2.14963154862e-05
-2.36956444852e-05
-2.60105282314e-05
-2.83826553725e-05
-3.07040503768e-05
-3.2789447745e-05
-3.43399725789e-05
-3.49029508854e-05
-3.3792634021e-05
-3.0165212735e-05
1.54998931468e-06
-3.1397647834e-07
1.73543345847e-06
-2.00571563237e-07
1.84655029584e-06
-1.25945349902e-07
1.94852197791e-06
-1.16514447172e-07
2.03442688108e-06
-1.00198383297e-07
2.11234670121e-06
-9.20100615002e-08
2.17532838391e-06
-7.68841891666e-08
2.21695418281e-06
-5.53687210417e-08
2.22471594512e-06
-2.13424562832e-08
2.1819770576e-06
2.93060101891e-08
2.06437604466e-06
1.04333190584e-07
1.83897204017e-06
2.12303418652e-07
1.4617064202e-06
3.64349699148e-07
8.75617948425e-07
5.73366882524e-07
8.40781851283e-09
8.54707590609e-07
-1.23053150683e-06
1.22669663686e-06
-2.95183113643e-06
1.70938613764e-06
-5.28793118957e-06
2.32449605136e-06
-8.41030498105e-06
3.11075587741e-06
-1.25345648784e-05
4.11270441952e-06
-1.77257177851e-05
5.18035014912e-06
-2.34822266781e-05
5.74659334522e-06
-2.8883143003e-05
5.39156137209e-06
4.56674382092e-06
-3.34563817834e-05
1.91589896009e-06