/*--------------------------------*- C++ -*----------------------------------*\
| =========                 |                                                 |
| \\      /  F ield         | foam-extend: Open Source CFD                    |
|  \\    /   O peration     | Version:     3.2                                |
|   \\  /    A nd           | Web:         http://www.foam-extend.org         |
|    \\/     M anipulation  | For copyright notice see file Copyright         |
\*---------------------------------------------------------------------------*/
FoamFile
{
    version     2.0;
    format      ascii;
    class       pointVectorField;
    location    "1";
    object      pointDisplacement;
}
// * * * * * * * * * * * * * * * * * * * * * * * * * * * * * * * * * * * * * //

dimensions      [0 1 0 0 0 0 0];

internalField   nonuniform List<vector> 
6656
(
(0 0 0)
(0 0 0)
(-2.22617418751e-06 -0.0280595775989 0)
(-2.20770991948e-06 -0.0268312543629 0)
(0 0 0)
(0 0 0)
(-5.90274928728e-06 -0.0267232419536 0)
(-7.34018261755e-06 -0.028057459885 3.46944695195e-18)
(-7.50252176168e-06 -0.0268279432728 0)
(-9.45888277121e-06 -0.0280523462851 3.46944695195e-18)
(0 0 0)
(-5.90291556785e-06 -0.0267153111575 0)
(-7.34116883307e-06 -0.0280472322767 3.46944695195e-18)
(-2.20800099806e-06 -0.0268206436633 0)
(-2.22756890687e-06 -0.0280451135765 0)
(0 0 0)
(0 0 0)
(0 0 0)
(0 0 0)
(0 0 0)
(1.61742034237e-06 -0.0267252329702 0)
(2.88742573869e-06 -0.0280574588988 -3.46944695195e-18)
(3.32641761816e-06 -0.0268210166063 0)
(5.00513967682e-06 -0.0280523448904 -3.46944695195e-18)
(1.61730818678e-06 -0.0267179618409 0)
(2.88643952317e-06 -0.0280472312904 -3.46944695195e-18)
(0 0 0)
(0 0 0)
(0 0 0)
(0 0 0)
(0 0 0)
(0 0 0)
(0 0 0)
(0 0 0)
(0 0 0)
(-5.90274928728e-06 -0.0267232419536 0)
(0 0 0)
(-7.50252176168e-06 -0.0268279432728 0)
(0 0 0)
(-5.90291556785e-06 -0.0267153111575 0)
(0 0 0)
(0 0 0)
(-2.20770991948e-06 -0.0268312543629 0)
(0 0 0)
(-7.34018261755e-06 -0.028057459885 6.93889390391e-18)
(-2.22617418751e-06 -0.0280595775989 0)
(-9.45888277121e-06 -0.0280523462851 6.93889390391e-18)
(-7.34116883307e-06 -0.0280472322767 6.93889390391e-18)
(-2.20800099806e-06 -0.0268206436633 0)
(-2.22756890687e-06 -0.0280451135765 0)
(0 0 0)
(0 0 0)
(1.61742034237e-06 -0.0267252329702 0)
(2.88742573869e-06 -0.0280574588988 -6.93889390391e-18)
(3.32641761816e-06 -0.0268210166063 0)
(5.00513967682e-06 -0.0280523448904 -6.93889390391e-18)
(1.61730818678e-06 -0.0267179618409 0)
(2.88643952317e-06 -0.0280472312904 -6.93889390391e-18)
(0 0 0)
(0 0 0)
(0 0 0)
(0 0 0)
(0 0 0)
(0 0 0)
(-3.22762378667e-06 -0.026831227491 0)
(-4.19744940523e-06 -0.0268316185706 0)
(-5.07553644495e-06 -0.0268279248077 0)
(-6.68817575237e-06 -0.0268264720577 0)
(-7.13371044938e-06 -0.0268305184414 0)
(-7.40937102955e-06 -0.0268294715104 0)
(-7.40935468372e-06 -0.0268272781292 0)
(-7.13367024026e-06 -0.0268262046166 0)
(-6.68809009264e-06 -0.026820209013 0)
(-5.07593207445e-06 -0.0268186087496 0)
(-4.19780494186e-06 -0.0268216107401 0)
(-3.22793785094e-06 -0.0268207627782 0)
(-3.63708298559e-06 -0.0280594387739 0)
(-4.99379814896e-06 -0.0280590273617 0)
(-6.24418187472e-06 -0.0280583591727 3.46944695195e-18)
(-8.2396816835e-06 -0.0280563640577 3.46944695195e-18)
(-8.90811182796e-06 -0.0280551138029 3.46944695195e-18)
(-9.31978565529e-06 -0.0280537571671 3.46944695195e-18)
(-9.32005775154e-06 -0.0280509353763 3.46944695195e-18)
(-8.90864556395e-06 -0.0280495786611 3.46944695195e-18)
(-8.24045654808e-06 -0.0280483282774 3.46944695195e-18)
(-6.24534154149e-06 -0.0280463327776 3.46944695195e-18)
(-4.99508670164e-06 -0.0280456643474 0)
(-3.63845090582e-06 -0.0280452526736 0)
(-2.17743061671e-06 -0.0261925902649 0)
(-2.13443916071e-06 -0.0254479236683 0)
(-2.08280782449e-06 -0.0246408716118 0)
(-2.02394482845e-06 -0.0237832891274 0)
(-1.95920986471e-06 -0.0228832690256 0)
(-1.88945877967e-06 -0.0219464450744 0)
(-1.81532029087e-06 -0.0209768973228 0)
(-1.73724836289e-06 -0.0199775373617 0)
(-1.6555663107e-06 -0.0189503720179 0)
(-1.57049652916e-06 -0.0178966922687 0)
(-1.48218247447e-06 -0.0168171383661 0)
(-1.39070072231e-06 -0.0157118821409 0)
(-1.2960689911e-06 -0.0145806474858 0)
(-1.19825069923e-06 -0.0134227639308 0)
(-1.09715735145e-06 -0.0122371747058 0)
(-9.92650391274e-07 -0.0110224922605 0)
(-8.8454015095e-07 -0.00977698497031 0)
(-7.72582841946e-07 -0.00849866183452 0)
(-6.5648042973e-07 -0.00718513069005 0)
(-5.35870700022e-07 -0.00583364495209 0)
(-4.10323646404e-07 -0.00444126975086 0)
(-2.79346057324e-07 -0.00300486811099 0)
(-1.42360859162e-07 -0.00152106062882 0)
(0 0 0)
(0 0 0)
(0 0 0)
(-1.81147271348e-07 -0.0015394351966 0)
(-3.5717509097e-07 -0.00304544615006 0)
(-5.27440828723e-07 -0.00450560000959 0)
(-6.9298775784e-07 -0.00592221195772 0)
(-8.54942807743e-07 -0.00729864374434 0)
(-1.01438628758e-06 -0.00863795737793 0)
(-1.17231845988e-06 -0.00994228579815 0)
(-1.32976990935e-06 -0.0112135072281 0)
(-1.48782463953e-06 -0.0124531714793 0)
(-1.64765964737e-06 -0.0136625168152 0)
(-1.81059150642e-06 -0.0148424013382 0)
(-1.97813418718e-06 -0.0159932002317 0)
(-2.15207971623e-06 -0.0171147553749 0)
(-2.33460879807e-06 -0.0182063951821 0)
(-2.52843670768e-06 -0.0192668391433 0)
(-2.73706241811e-06 -0.0202944954221 0)
(-2.96485776428e-06 -0.0212868745353 0)
(-3.21735270339e-06 -0.0222395870718 0)
(-3.50183529462e-06 -0.0231467679004 0)
(-3.82776356708e-06 -0.0240015678429 0)
(-4.20675572785e-06 -0.0247947062371 0)
(-4.65172950771e-06 -0.0255139907018 0)
(-5.17584210036e-06 -0.0261439727443 0)
(0 0 0)
(0 0 0)
(0 0 0)
(0 0 0)
(0 0 0)
(0 0 0)
(0 0 0)
(0 0 0)
(0 0 0)
(0 0 0)
(0 0 0)
(0 0 0)
(0 0 0)
(0 0 0)
(0 0 0)
(0 0 0)
(0 0 0)
(0 0 0)
(0 0 0)
(0 0 0)
(0 0 0)
(0 0 0)
(0 0 0)
(0 0 0)
(0 0 0)
(0 0 0)
(0 0 0)
(0 0 0)
(0 0 0)
(0 0 0)
(0 0 0)
(0 0 0)
(0 0 0)
(0 0 0)
(0 0 0)
(0 0 0)
(0 0 0)
(0 0 0)
(0 0 0)
(0 0 0)
(0 0 0)
(0 0 0)
(0 0 0)
(0 0 0)
(0 0 0)
(0 0 0)
(-3.34942859885e-07 -0.00157812917154 0)
(-6.60394257386e-07 -0.00311014521881 0)
(-9.74148379642e-07 -0.00458418821473 0)
(-1.27773160282e-06 -0.00600599171534 0)
(-1.57259679679e-06 -0.0073808608277 0)
(-1.86005364991e-06 -0.00871334086512 0)
(-2.1412932306e-06 -0.0100073749064 0)
(-2.41740414047e-06 -0.0112662942307 0)
(-2.68938209062e-06 -0.0124928261793 0)
(-2.9581386056e-06 -0.0136891734952 0)
(-3.22449726293e-06 -0.0148569365266 0)
(-3.48918299527e-06 -0.015997098432 0)
(-3.75278931277e-06 -0.017109966982 0)
(-4.01586465588e-06 -0.0181955811713 0)
(-4.27866833955e-06 -0.0192530476556 0)
(-4.54085227871e-06 -0.0202797505883 0)
(-4.80150829025e-06 -0.0212723422904 0)
(-5.05873459052e-06 -0.0222265993617 0)
(-5.30888691045e-06 -0.0231369946877 0)
(-5.54520275478e-06 -0.0239957510434 0)
(-5.75564290446e-06 -0.0247922923813 0)
(-5.92003223026e-06 -0.0255137247048 0)
(-6.00509536714e-06 -0.0261441339061 0)
(0 0 0)
(0 0 0)
(0 0 0)
(-7.04661317917e-06 -0.0261937645054 0)
(-6.61043216401e-06 -0.0254406114775 0)
(-6.21297980619e-06 -0.0246230422179 0)
(-5.84668160823e-06 -0.0237540746239 0)
(-5.50490920447e-06 -0.0228426831842 0)
(-5.18239422962e-06 -0.0218954834675 0)
(-4.87503574852e-06 -0.0209174906848 0)
(-4.57955598389e-06 -0.0199123231305 0)
(-4.29311080436e-06 -0.0188817767487 0)
(-4.0132986039e-06 -0.0178267689994 0)
(-3.73830194278e-06 -0.0167482640961 0)
(-3.46658564948e-06 -0.0156466924437 0)
(-3.19672396571e-06 -0.0145216322153 0)
(-2.92740141305e-06 -0.0133721150357 0)
(-2.65738990432e-06 -0.0121966811866 0)
(-2.38550854794e-06 -0.0109934362245 0)
(-2.1105964523e-06 -0.00975999970633 0)
(-1.83148463984e-06 -0.00849355383827 0)
(-1.54697291167e-06 -0.00719077217342 0)
(-1.25580842728e-06 -0.0058479200274 0)
(-9.56652431429e-07 -0.00446071833577 0)
(-6.48059326557e-07 -0.00302436893125 0)
(-3.2853724635e-07 -0.00153380342514 0)
(0 0 0)
(0 0 0)
(0 0 0)
(-3.34924571625e-07 -0.00157752475366 0)
(-6.60362672583e-07 -0.00310945191612 0)
(-9.74105799405e-07 -0.00458383075484 0)
(-1.27767756075e-06 -0.00600607361344 0)
(-1.57252783136e-06 -0.00738125694057 0)
(-1.85996925615e-06 -0.00871390964672 0)
(-2.1411956182e-06 -0.0100080203387 0)
(-2.41729782763e-06 -0.0112670046663 0)
(-2.6892744633e-06 -0.0124936681462 0)
(-2.9580371232e-06 -0.0136902213791 0)
(-3.2244101516e-06 -0.0148582608632 0)
(-3.48911742594e-06 -0.0159987526665 0)
(-3.75275111204e-06 -0.0171119431352 0)
(-4.01585626137e-06 -0.0181978607166 0)
(-4.27869612191e-06 -0.0192556756234 0)
(-4.54092168904e-06 -0.0202827812494 0)
(-4.80161790483e-06 -0.0212757986302 0)
(-5.05887078656e-06 -0.022230489561 0)
(-5.30903734953e-06 -0.0231412750831 0)
(-5.5453418664e-06 -0.0240004413948 0)
(-5.75574801995e-06 -0.0247974995629 0)
(-5.92010195392e-06 -0.0255194716454 0)
(-6.00513928743e-06 -0.0261507202185 0)
(0 0 0)
(0 0 0)
(0 0 0)
(0 0 0)
(0 0 0)
(0 0 0)
(0 0 0)
(0 0 0)
(0 0 0)
(0 0 0)
(0 0 0)
(0 0 0)
(0 0 0)
(0 0 0)
(0 0 0)
(0 0 0)
(0 0 0)
(0 0 0)
(0 0 0)
(0 0 0)
(0 0 0)
(0 0 0)
(0 0 0)
(0 0 0)
(0 0 0)
(0 0 0)
(0 0 0)
(0 0 0)
(0 0 0)
(0 0 0)
(0 0 0)
(0 0 0)
(0 0 0)
(0 0 0)
(0 0 0)
(0 0 0)
(0 0 0)
(0 0 0)
(0 0 0)
(0 0 0)
(0 0 0)
(0 0 0)
(0 0 0)
(0 0 0)
(0 0 0)
(0 0 0)
(-1.80979147555e-07 -0.00153874136302 0)
(-3.56846234113e-07 -0.00304421733965 0)
(-5.26962335718e-07 -0.00450404499354 0)
(-6.92377199108e-07 -0.00592055081485 0)
(-8.54223592992e-07 -0.00729708837349 0)
(-1.01357835568e-06 -0.00863659111828 0)
(-1.17143713588e-06 -0.00994110467035 0)
(-1.32882677705e-06 -0.0112124838062 0)
(-1.48683402668e-06 -0.0124523485712 0)
(-1.64663838019e-06 -0.0136619708642 0)
(-1.80955856249e-06 -0.0148422027033 0)
(-1.97711437984e-06 -0.0159933829534 0)
(-2.15110024117e-06 -0.0171153701701 0)
(-2.3336921085e-06 -0.0182075074731 0)
(-2.52760235599e-06 -0.0192685975608 0)
(-2.73632028827e-06 -0.0202970563125 0)
(-2.96420949017e-06 -0.0212903609968 0)
(-3.21679262898e-06 -0.0222440381358 0)
(-3.50134714674e-06 -0.0231521466308 0)
(-3.82731928355e-06 -0.0240077629619 0)
(-4.20630881653e-06 -0.0248015953764 0)
(-4.6512046116e-06 -0.0255214203353 0)
(-5.17537274715e-06 -0.0261518600325 0)
(0 0 0)
(0 0 0)
(0 0 0)
(-2.17717733326e-06 -0.0262022046718 0)
(-2.13417290264e-06 -0.0254565327843 0)
(-2.08249748088e-06 -0.0246485378249 0)
(-2.02357308175e-06 -0.0237900831205 0)
(-1.95877609144e-06 -0.0228892675049 0)
(-1.8889676439e-06 -0.0219517152297 0)
(-1.8147719118e-06 -0.0209814958552 0)
(-1.7366442589e-06 -0.0199815468168 0)
(-1.65491134551e-06 -0.0189538908361 0)
(-1.56979887862e-06 -0.0178997911246 0)
(-1.48145349195e-06 -0.0168198909687 0)
(-1.3899538444e-06 -0.0157143247586 0)
(-1.29531790579e-06 -0.0145827959818 0)
(-1.19750852781e-06 -0.0134246254224 0)
(-1.09643717402e-06 -0.0122387811829 0)
(-9.91964542305e-07 -0.0110238755092 0)
(-8.8390055598e-07 -0.0097781868966 0)
(-7.7200272415e-07 -0.00849966697833 0)
(-6.55972645166e-07 -0.00718596049785 0)
(-5.35450186859e-07 -0.00583440646536 0)
(-4.1000688246e-07 -0.00444203129063 0)
(-2.79139901086e-07 -0.00300556297133 0)
(-1.42260698539e-07 -0.00152146128049 0)
(-2.22301511691e-06 -0.0272982086382 0)
(-2.22785500589e-06 -0.0276533230273 0)
(-2.22417106494e-06 -0.0279025496957 0)
(-2.22520532895e-06 -0.0278893056044 0)
(-2.22847920188e-06 -0.027640953491 0)
(-2.22341678614e-06 -0.0272867107648 0)
(-6.89686480098e-06 -0.0278904223036 0)
(-6.58647641881e-06 -0.0276381269149 0)
(-6.26968844212e-06 -0.0272717158935 0)
(-8.82712846259e-06 -0.027898066728 0)
(-8.3830926517e-06 -0.0276518122617 0)
(-7.93947018527e-06 -0.0272973393571 0)
(-6.89614243835e-06 -0.0278998426847 0)
(-6.58604905705e-06 -0.0276470509727 0)
(-6.2694292309e-06 -0.0272802002285 0)
(-1.0916645325e-07 -0.00159971730099 0)
(-2.12509890113e-07 -0.00315300052425 0)
(-3.09083672492e-07 -0.00464882328703 0)
(-3.98952833739e-07 -0.00609214955287 0)
(-4.82055150634e-07 -0.00748739111897 0)
(-5.58199880622e-07 -0.00883847300738 0)
(-6.27056615706e-07 -0.0101488607837 0)
(-6.88127611156e-07 -0.011421488412 0)
(-7.40727730342e-07 -0.0126587058849 0)
(-7.83962629858e-07 -0.01386238891 0)
(-8.16675529676e-07 -0.0150339663242 0)
(-8.37382111064e-07 -0.0161744079214 0)
(-8.44187653663e-07 -0.0172842615996 0)
(-8.34597576842e-07 -0.0183632974712 0)
(-8.05442921075e-07 -0.0194102725054 0)
(-7.52698251754e-07 -0.0204237471465 0)
(-6.71066291116e-07 -0.0214013223738 0)
(-5.53871995475e-07 -0.0223385557286 0)
(-3.92686266743e-07 -0.0232298825374 0)
(-1.76927753386e-07 -0.0240687251353 0)
(1.06177938185e-07 -0.0248463943333 0)
(4.70975470733e-07 -0.0255508400068 0)
(9.31931075951e-07 -0.0261672203316 0)
(7.25665271997e-07 -0.026827811271 0)
(-1.84884631232e-07 -0.0268326049722 0)
(-1.178960817e-06 -0.0268324074011 0)
(0 0 0)
(0 0 0)
(0 0 0)
(2.47104775763e-06 -0.0278965785751 0)
(2.18588694733e-06 -0.027639879061 0)
(1.91280672374e-06 -0.0272731647666 0)
(-8.15292188566e-07 -0.0280594385018 0)
(5.4134360726e-07 -0.028059026828 0)
(1.79159844712e-06 -0.0280583583979 -3.46944695195e-18)
(2.44282105719e-06 -0.0268247228512 0)
(2.92331822721e-06 -0.0268257815847 0)
(3.22420287451e-06 -0.0268230955875 0)
(3.67020941872e-06 -0.0272859077312 0)
(4.0379195604e-06 -0.0276416219781 0)
(4.42482632846e-06 -0.0278935055153 0)
(4.86631465715e-06 -0.0280537557992 -3.46944695195e-18)
(4.45490246957e-06 -0.0280551125143 -3.46944695195e-18)
(3.7867134537e-06 -0.028056362898 -3.46944695195e-18)
(3.22421757706e-06 -0.0268211151337 0)
(2.92335638191e-06 -0.0268219001643 0)
(2.44292573444e-06 -0.0268191368063 0)
(1.91259033445e-06 -0.0272651433404 0)
(2.18548074678e-06 -0.0276311679054 0)
(2.47032655391e-06 -0.0278872214705 0)
(3.78593858912e-06 -0.0280483271177 -3.46944695195e-18)
(4.45436873358e-06 -0.0280495773726 -3.46944695195e-18)
(4.8660425609e-06 -0.0280509340084 -3.46944695195e-18)
(7.25322026092e-07 -0.0268189752352 0)
(-1.85194840971e-07 -0.0268228086419 0)
(-1.17925131034e-06 -0.0268220190446 0)
(-8.16660108788e-07 -0.0280452524015 0)
(5.40055054558e-07 -0.0280456638137 0)
(1.79043878034e-06 -0.0280463320027 -3.46944695195e-18)
(0 0 0)
(0 0 0)
(0 0 0)
(-1.09248006855e-07 -0.00159914764573 0)
(-2.12671225326e-07 -0.00315196636082 0)
(-3.09321608132e-07 -0.00464746705875 0)
(-3.99261282645e-07 -0.00609057883824 0)
(-4.82426078451e-07 -0.00748563575163 0)
(-5.58623567257e-07 -0.00883650819218 0)
(-6.27522300836e-07 -0.010146658374 0)
(-6.8862218739e-07 -0.011419027255 0)
(-7.4123777007e-07 -0.0126559669625 0)
(-7.84475922347e-07 -0.0138593402352 0)
(-8.17181323936e-07 -0.0150305854339 0)
(-8.37870795703e-07 -0.0161706673106 0)
(-8.44650012434e-07 -0.0172801437507 0)
(-8.35026620983e-07 -0.0183587724247 0)
(-8.05829550352e-07 -0.0194053168863 0)
(-7.53034410226e-07 -0.0204183287976 0)
(-6.7134500344e-07 -0.0213953599046 0)
(-5.54084570125e-07 -0.0223319038449 0)
(-3.92816974723e-07 -0.0232228189847 0)
(-1.77079299225e-07 -0.0240617734057 0)
(1.05906036144e-07 -0.0248392845491 0)
(4.70570790612e-07 -0.0255432317159 0)
(9.31545642283e-07 -0.0261595248883 0)
(0 0 0)
(0 0 0)
(0 0 0)
(0 0 0)
(0 0 0)
(0 0 0)
(0 0 0)
(0 0 0)
(0 0 0)
(0 0 0)
(0 0 0)
(0 0 0)
(0 0 0)
(0 0 0)
(0 0 0)
(0 0 0)
(0 0 0)
(0 0 0)
(0 0 0)
(0 0 0)
(0 0 0)
(0 0 0)
(0 0 0)
(0 0 0)
(0 0 0)
(0 0 0)
(0 0 0)
(0 0 0)
(0 0 0)
(0 0 0)
(0 0 0)
(0 0 0)
(0 0 0)
(0 0 0)
(0 0 0)
(0 0 0)
(0 0 0)
(0 0 0)
(0 0 0)
(0 0 0)
(0 0 0)
(0 0 0)
(0 0 0)
(0 0 0)
(0 0 0)
(0 0 0)
(1.8368263541e-06 -0.0261654972829 0)
(1.87455344004e-06 -0.0255478137652 0)
(1.84431159217e-06 -0.0248429363453 0)
(1.77638764077e-06 -0.0240648248392 0)
(1.68858725433e-06 -0.0232249368091 0)
(1.59155089408e-06 -0.0223320704324 0)
(1.49137867798e-06 -0.0213931135309 0)
(1.39135645816e-06 -0.0204128793126 0)
(1.29312895401e-06 -0.0193946069688 0)
(1.19745698231e-06 -0.0183408254759 0)
(1.10457086409e-06 -0.0172536207882 0)
(1.01441395827e-06 -0.0161345759456 0)
(9.26691870329e-07 -0.0149838693166 0)
(8.41001056942e-07 -0.0138012155496 0)
(7.56929392771e-07 -0.0125863870386 0)
(6.74038105394e-07 -0.0113387128452 0)
(5.91879382444e-07 -0.0100571568511 0)
(5.10003677787e-07 -0.00874035855907 0)
(4.27961888073e-07 -0.00738666244856 0)
(3.45303916551e-07 -0.00599414012129 0)
(2.61576442341e-07 -0.00456059622025 0)
(1.76320142466e-07 -0.00308358771005 0)
(8.90443882859e-08 -0.00156005598861 0)
(0 0 0)
(0 0 0)
(0 0 0)
(2.98734179963e-06 -0.0261960685762 0)
(2.68231331015e-06 -0.0254562342006 0)
(2.42197717209e-06 -0.024655530904 0)
(2.19716211232e-06 -0.0238042743112 0)
(2.00067866453e-06 -0.0229099156629 0)
(1.82690515812e-06 -0.0219777676909 0)
(1.67147064722e-06 -0.0210116674157 0)
(1.53094133249e-06 -0.0200145441422 0)
(1.40258878097e-06 -0.0189884755669 0)
(1.28416220849e-06 -0.0179344489415 0)
(1.17378147773e-06 -0.0168526721019 0)
(1.06990866883e-06 -0.0157431534165 0)
(9.71296084952e-07 -0.0146059915621 0)
(8.76896137745e-07 -0.0134410226125 0)
(7.85783759218e-07 -0.0122475793299 0)
(6.97142234615e-07 -0.0110246925291 0)
(6.10241183932e-07 -0.00977113957574 0)
(5.2441627188e-07 -0.0084854723025 0)
(4.39051855424e-07 -0.00716602693169 0)
(3.53567176475e-07 -0.00581093428331 0)
(2.6740466426e-07 -0.00441811982354 0)
(1.80018812571e-07 -0.00298532084611 0)
(9.08434344651e-08 -0.00150973248275 0)
(0 0 0)
(0 0 0)
(0 0 0)
(1.83694368514e-06 -0.0261594914091 0)
(1.8746776641e-06 -0.0255427742671 0)
(1.84442766339e-06 -0.0248388590731 0)
(1.7765165256e-06 -0.0240615084225 0)
(1.68873626879e-06 -0.0232222256135 0)
(1.59172393018e-06 -0.0223298567533 0)
(1.49157508958e-06 -0.0213913318292 0)
(1.39157444991e-06 -0.0204114675877 0)
(1.29336494922e-06 -0.0193935172867 0)
(1.19770684015e-06 -0.0183400185634 0)
(1.1048302863e-06 -0.0172530675811 0)
(1.01467895697e-06 -0.0161342504687 0)
(9.26958686933e-07 -0.0149837421706 0)
(8.41265211851e-07 -0.0138012562768 0)
(7.57186232074e-07 -0.0125865658616 0)
(6.74282594935e-07 -0.0113389977507 0)
(5.92105945299e-07 -0.0100575108436 0)
(5.10206054839e-07 -0.0087407455672 0)
(4.28134147601e-07 -0.00738704815851 0)
(3.45441565636e-07 -0.00599449141819 0)
(2.61677584747e-07 -0.00456088324157 0)
(1.76385448331e-07 -0.00308378912734 0)
(8.90760084494e-08 -0.00156015772648 0)
(0 0 0)
(0 0 0)
(0 0 0)
(0 0 0)
(0 0 0)
(0 0 0)
(0 0 0)
(0 0 0)
(0 0 0)
(0 0 0)
(0 0 0)
(0 0 0)
(0 0 0)
(0 0 0)
(0 0 0)
(0 0 0)
(0 0 0)
(0 0 0)
(0 0 0)
(0 0 0)
(0 0 0)
(0 0 0)
(0 0 0)
(0 0 0)
(0 0 0)
(0 0 0)
(0 0 0)
(0 0 0)
(0 0 0)
(0 0 0)
(0 0 0)
(0 0 0)
(0 0 0)
(0 0 0)
(0 0 0)
(0 0 0)
(0 0 0)
(0 0 0)
(0 0 0)
(0 0 0)
(0 0 0)
(0 0 0)
(0 0 0)
(0 0 0)
(0 0 0)
(0 0 0)
(0 0 0)
(0 0 0)
(0 0 0)
(0 0 0)
(0 0 0)
(0 0 0)
(0 0 0)
(0 0 0)
(0 0 0)
(0 0 0)
(0 0 0)
(0 0 0)
(0 0 0)
(0 0 0)
(0 0 0)
(0 0 0)
(0 0 0)
(0 0 0)
(0 0 0)
(0 0 0)
(0 0 0)
(0 0 0)
(0 0 0)
(0 0 0)
(0 0 0)
(0 0 0)
(0 0 0)
(0 0 0)
(0 0 0)
(0 0 0)
(0 0 0)
(0 0 0)
(0 0 0)
(0 0 0)
(0 0 0)
(0 0 0)
(0 0 0)
(0 0 0)
(0 0 0)
(0 0 0)
(0 0 0)
(0 0 0)
(0 0 0)
(0 0 0)
(0 0 0)
(0 0 0)
(-1.80979147555e-07 -0.00153874136302 0)
(-3.56846234113e-07 -0.00304421733965 0)
(-5.26962335718e-07 -0.00450404499354 0)
(-6.92377199108e-07 -0.00592055081485 0)
(-8.54223592992e-07 -0.00729708837349 0)
(-1.01357835568e-06 -0.00863659111828 0)
(-1.17143713588e-06 -0.00994110467035 0)
(-1.32882677705e-06 -0.0112124838062 0)
(-1.48683402668e-06 -0.0124523485712 0)
(-1.64663838019e-06 -0.0136619708642 0)
(-1.80955856249e-06 -0.0148422027033 0)
(-1.97711437984e-06 -0.0159933829534 0)
(-2.15110024117e-06 -0.0171153701701 0)
(-2.3336921085e-06 -0.0182075074731 0)
(-2.52760235599e-06 -0.0192685975608 0)
(-2.73632028827e-06 -0.0202970563125 0)
(-2.96420949017e-06 -0.0212903609968 0)
(-3.21679262898e-06 -0.0222440381358 0)
(-3.50134714674e-06 -0.0231521466308 0)
(-3.82731928355e-06 -0.0240077629619 0)
(-4.20630881653e-06 -0.0248015953764 0)
(-4.6512046116e-06 -0.0255214203353 0)
(-5.17537274715e-06 -0.0261518600325 0)
(-6.00513928743e-06 -0.0261507202185 0)
(-5.92010195392e-06 -0.0255194716454 0)
(-5.75574801995e-06 -0.0247974995629 0)
(-5.5453418664e-06 -0.0240004413948 0)
(-5.30903734953e-06 -0.0231412750831 0)
(-5.05887078656e-06 -0.022230489561 0)
(-4.80161790483e-06 -0.0212757986302 0)
(-4.54092168904e-06 -0.0202827812494 0)
(-4.27869612191e-06 -0.0192556756234 0)
(-4.01585626137e-06 -0.0181978607166 0)
(-3.75275111204e-06 -0.0171119431352 0)
(-3.48911742594e-06 -0.0159987526665 0)
(-3.2244101516e-06 -0.0148582608632 0)
(-2.9580371232e-06 -0.0136902213791 0)
(-2.6892744633e-06 -0.0124936681462 0)
(-2.41729782763e-06 -0.0112670046663 0)
(-2.1411956182e-06 -0.0100080203387 0)
(-1.85996925615e-06 -0.00871390964672 0)
(-1.57252783136e-06 -0.00738125694057 0)
(-1.27767756075e-06 -0.00600607361344 0)
(-9.74105799405e-07 -0.00458383075484 0)
(-6.60362672583e-07 -0.00310945191612 0)
(-3.34924571625e-07 -0.00157752475366 0)
(0 0 0)
(0 0 0)
(0 0 0)
(-6.68817575237e-06 -0.0268264720577 0)
(-7.13371044938e-06 -0.0268305184414 0)
(-7.40937102955e-06 -0.0268294715104 0)
(-7.04661317917e-06 -0.0261937645054 0)
(-6.61043216401e-06 -0.0254406114775 0)
(-6.21297980619e-06 -0.0246230422179 0)
(-5.84668160823e-06 -0.0237540746239 0)
(-5.50490920447e-06 -0.0228426831842 0)
(-5.18239422962e-06 -0.0218954834675 0)
(-4.87503574852e-06 -0.0209174906848 0)
(-4.57955598389e-06 -0.0199123231305 0)
(-4.29311080436e-06 -0.0188817767487 0)
(-4.0132986039e-06 -0.0178267689994 0)
(-3.73830194278e-06 -0.0167482640961 0)
(-3.46658564948e-06 -0.0156466924437 0)
(-3.19672396571e-06 -0.0145216322153 0)
(-2.92740141305e-06 -0.0133721150357 0)
(-2.65738990432e-06 -0.0121966811866 0)
(-2.38550854794e-06 -0.0109934362245 0)
(-2.1105964523e-06 -0.00975999970633 0)
(-1.83148463984e-06 -0.00849355383827 0)
(-1.54697291167e-06 -0.00719077217342 0)
(-1.25580842728e-06 -0.0058479200274 0)
(-9.56652431429e-07 -0.00446071833577 0)
(-6.48059326557e-07 -0.00302436893125 0)
(-3.2853724635e-07 -0.00153380342514 0)
(0 0 0)
(0 0 0)
(0 0 0)
(-7.40935468372e-06 -0.0268272781292 0)
(-7.13367024026e-06 -0.0268262046166 0)
(-6.68809009264e-06 -0.026820209013 0)
(-6.00509536714e-06 -0.0261441339061 0)
(-5.92003223026e-06 -0.0255137247048 0)
(-5.75564290446e-06 -0.0247922923813 0)
(-5.54520275478e-06 -0.0239957510434 0)
(-5.30888691045e-06 -0.0231369946877 0)
(-5.05873459052e-06 -0.0222265993617 0)
(-4.80150829025e-06 -0.0212723422904 0)
(-4.54085227871e-06 -0.0202797505883 0)
(-4.27866833955e-06 -0.0192530476556 0)
(-4.01586465588e-06 -0.0181955811713 0)
(-3.75278931277e-06 -0.017109966982 0)
(-3.48918299527e-06 -0.015997098432 0)
(-3.22449726293e-06 -0.0148569365266 0)
(-2.9581386056e-06 -0.0136891734952 0)
(-2.68938209062e-06 -0.0124928261793 0)
(-2.41740414047e-06 -0.0112662942307 0)
(-2.1412932306e-06 -0.0100073749064 0)
(-1.86005364991e-06 -0.00871334086512 0)
(-1.57259679679e-06 -0.0073808608277 0)
(-1.27773160282e-06 -0.00600599171534 0)
(-9.74148379642e-07 -0.00458418821473 0)
(-6.60394257386e-07 -0.00311014521881 0)
(-3.34942859885e-07 -0.00157812917154 0)
(0 0 0)
(0 0 0)
(0 0 0)
(0 0 0)
(0 0 0)
(0 0 0)
(0 0 0)
(0 0 0)
(0 0 0)
(0 0 0)
(0 0 0)
(0 0 0)
(0 0 0)
(0 0 0)
(0 0 0)
(0 0 0)
(0 0 0)
(0 0 0)
(0 0 0)
(0 0 0)
(0 0 0)
(0 0 0)
(0 0 0)
(-5.17584210036e-06 -0.0261439727443 0)
(-4.65172950771e-06 -0.0255139907018 0)
(-4.20675572785e-06 -0.0247947062371 0)
(-3.82776356708e-06 -0.0240015678429 0)
(-3.50183529462e-06 -0.0231467679004 0)
(-3.21735270339e-06 -0.0222395870718 0)
(-2.96485776428e-06 -0.0212868745353 0)
(-2.73706241811e-06 -0.0202944954221 0)
(-2.52843670768e-06 -0.0192668391433 0)
(-2.33460879807e-06 -0.0182063951821 0)
(-2.15207971623e-06 -0.0171147553749 0)
(-1.97813418718e-06 -0.0159932002317 0)
(-1.81059150642e-06 -0.0148424013382 0)
(-1.64765964737e-06 -0.0136625168152 0)
(-1.48782463953e-06 -0.0124531714793 0)
(-1.32976990935e-06 -0.0112135072281 0)
(-1.17231845988e-06 -0.00994228579815 0)
(-1.01438628758e-06 -0.00863795737793 0)
(-8.54942807743e-07 -0.00729864374434 0)
(-6.9298775784e-07 -0.00592221195772 0)
(-5.27440828723e-07 -0.00450560000959 0)
(-3.5717509097e-07 -0.00304544615006 0)
(-1.81147271348e-07 -0.0015394351966 0)
(0 0 0)
(0 0 0)
(0 0 0)
(0 0 0)
(0 0 0)
(0 0 0)
(0 0 0)
(0 0 0)
(0 0 0)
(0 0 0)
(0 0 0)
(0 0 0)
(0 0 0)
(0 0 0)
(0 0 0)
(0 0 0)
(0 0 0)
(0 0 0)
(0 0 0)
(0 0 0)
(0 0 0)
(0 0 0)
(0 0 0)
(-5.07553644495e-06 -0.0268279248077 0)
(-4.19744940523e-06 -0.0268316185706 0)
(-3.22762378667e-06 -0.026831227491 0)
(-2.17717733326e-06 -0.0262022046718 0)
(-2.13417290264e-06 -0.0254565327843 0)
(-2.08249748088e-06 -0.0246485378249 0)
(-2.02357308175e-06 -0.0237900831205 0)
(-1.95877609144e-06 -0.0228892675049 0)
(-1.8889676439e-06 -0.0219517152297 0)
(-1.8147719118e-06 -0.0209814958552 0)
(-1.7366442589e-06 -0.0199815468168 0)
(-1.65491134551e-06 -0.0189538908361 0)
(-1.56979887862e-06 -0.0178997911246 0)
(-1.48145349195e-06 -0.0168198909687 0)
(-1.3899538444e-06 -0.0157143247586 0)
(-1.29531790579e-06 -0.0145827959818 0)
(-1.19750852781e-06 -0.0134246254224 0)
(-1.09643717402e-06 -0.0122387811829 0)
(-9.91964542305e-07 -0.0110238755092 0)
(-8.8390055598e-07 -0.0097781868966 0)
(-7.7200272415e-07 -0.00849966697833 0)
(-6.55972645166e-07 -0.00718596049785 0)
(-5.35450186859e-07 -0.00583440646536 0)
(-4.1000688246e-07 -0.00444203129063 0)
(-2.79139901086e-07 -0.00300556297133 0)
(-1.42260698539e-07 -0.00152146128049 0)
(0 0 0)
(0 0 0)
(0 0 0)
(-6.89614243835e-06 -0.0278998426847 0)
(-6.58604905705e-06 -0.0276470509727 0)
(-6.2694292309e-06 -0.0272802002285 0)
(-2.22301511691e-06 -0.0272982086382 0)
(-2.22785500589e-06 -0.0276533230273 0)
(-2.22417106494e-06 -0.0279025496957 0)
(-3.63708298559e-06 -0.0280594387739 0)
(-4.99379814896e-06 -0.0280590273617 0)
(-6.24418187472e-06 -0.0280583591727 6.93889390391e-18)
(-7.93947018527e-06 -0.0272973393571 0)
(-8.3830926517e-06 -0.0276518122617 0)
(-8.82712846259e-06 -0.027898066728 0)
(-9.31978565529e-06 -0.0280537571671 6.93889390391e-18)
(-8.90811182796e-06 -0.0280551138029 6.93889390391e-18)
(-8.2396816835e-06 -0.0280563640577 6.93889390391e-18)
(-6.26968844212e-06 -0.0272717158935 0)
(-6.58647641881e-06 -0.0276381269149 0)
(-6.89686480098e-06 -0.0278904223036 0)
(-8.24045654808e-06 -0.0280483282774 6.93889390391e-18)
(-8.90864556395e-06 -0.0280495786611 6.93889390391e-18)
(-9.32005775154e-06 -0.0280509353763 6.93889390391e-18)
(-5.07593207445e-06 -0.0268186087496 0)
(-4.19780494186e-06 -0.0268216107401 0)
(-3.22793785094e-06 -0.0268207627782 0)
(-2.22341678614e-06 -0.0272867107648 0)
(-2.22847920188e-06 -0.027640953491 0)
(-2.22520532895e-06 -0.0278893056044 0)
(-3.63845090582e-06 -0.0280452526736 0)
(-4.99508670164e-06 -0.0280456643474 0)
(-6.24534154149e-06 -0.0280463327776 6.93889390391e-18)
(-2.17743061671e-06 -0.0261925902649 0)
(-2.13443916071e-06 -0.0254479236683 0)
(-2.08280782449e-06 -0.0246408716118 0)
(-2.02394482845e-06 -0.0237832891274 0)
(-1.95920986471e-06 -0.0228832690256 0)
(-1.88945877967e-06 -0.0219464450744 0)
(-1.81532029087e-06 -0.0209768973228 0)
(-1.73724836289e-06 -0.0199775373617 0)
(-1.6555663107e-06 -0.0189503720179 0)
(-1.57049652916e-06 -0.0178966922687 0)
(-1.48218247447e-06 -0.0168171383661 0)
(-1.39070072231e-06 -0.0157118821409 0)
(-1.2960689911e-06 -0.0145806474858 0)
(-1.19825069923e-06 -0.0134227639308 0)
(-1.09715735145e-06 -0.0122371747058 0)
(-9.92650391274e-07 -0.0110224922605 0)
(-8.8454015095e-07 -0.00977698497031 0)
(-7.72582841946e-07 -0.00849866183452 0)
(-6.5648042973e-07 -0.00718513069005 0)
(-5.35870700022e-07 -0.00583364495209 0)
(-4.10323646404e-07 -0.00444126975086 0)
(-2.79346057324e-07 -0.00300486811099 0)
(-1.42360859162e-07 -0.00152106062882 0)
(0 0 0)
(0 0 0)
(0 0 0)
(-1.0916645325e-07 -0.00159971730099 0)
(-2.12509890113e-07 -0.00315300052425 0)
(-3.09083672492e-07 -0.00464882328703 0)
(-3.98952833739e-07 -0.00609214955287 0)
(-4.82055150634e-07 -0.00748739111897 0)
(-5.58199880622e-07 -0.00883847300738 0)
(-6.27056615706e-07 -0.0101488607837 0)
(-6.88127611156e-07 -0.011421488412 0)
(-7.40727730342e-07 -0.0126587058849 0)
(-7.83962629858e-07 -0.01386238891 0)
(-8.16675529676e-07 -0.0150339663242 0)
(-8.37382111064e-07 -0.0161744079214 0)
(-8.44187653663e-07 -0.0172842615996 0)
(-8.34597576842e-07 -0.0183632974712 0)
(-8.05442921075e-07 -0.0194102725054 0)
(-7.52698251754e-07 -0.0204237471465 0)
(-6.71066291116e-07 -0.0214013223738 0)
(-5.53871995475e-07 -0.0223385557286 0)
(-3.92686266743e-07 -0.0232298825374 0)
(-1.76927753386e-07 -0.0240687251353 0)
(1.06177938185e-07 -0.0248463943333 0)
(4.70975470733e-07 -0.0255508400068 0)
(9.31931075951e-07 -0.0261672203316 0)
(7.25665271997e-07 -0.026827811271 0)
(-1.84884631232e-07 -0.0268326049722 0)
(-1.178960817e-06 -0.0268324074011 0)
(0 0 0)
(0 0 0)
(0 0 0)
(2.47104775763e-06 -0.0278965785751 0)
(2.18588694733e-06 -0.027639879061 0)
(1.91280672374e-06 -0.0272731647666 0)
(-8.15292188566e-07 -0.0280594385018 0)
(5.4134360726e-07 -0.028059026828 0)
(1.79159844712e-06 -0.0280583583979 -6.93889390391e-18)
(2.44282105719e-06 -0.0268247228512 0)
(2.92331822721e-06 -0.0268257815847 0)
(3.22420287451e-06 -0.0268230955875 0)
(3.67020941872e-06 -0.0272859077312 0)
(4.0379195604e-06 -0.0276416219781 0)
(4.42482632846e-06 -0.0278935055153 0)
(4.86631465715e-06 -0.0280537557992 -6.93889390391e-18)
(4.45490246957e-06 -0.0280551125143 -6.93889390391e-18)
(3.7867134537e-06 -0.028056362898 -6.93889390391e-18)
(3.22421757706e-06 -0.0268211151337 0)
(2.92335638191e-06 -0.0268219001643 0)
(2.44292573444e-06 -0.0268191368063 0)
(1.91259033445e-06 -0.0272651433404 0)
(2.18548074678e-06 -0.0276311679054 0)
(2.47032655391e-06 -0.0278872214705 0)
(3.78593858912e-06 -0.0280483271177 -6.93889390391e-18)
(4.45436873358e-06 -0.0280495773726 -6.93889390391e-18)
(4.8660425609e-06 -0.0280509340084 -6.93889390391e-18)
(7.25322026092e-07 -0.0268189752352 0)
(-1.85194840971e-07 -0.0268228086419 0)
(-1.17925131034e-06 -0.0268220190446 0)
(-8.16660108788e-07 -0.0280452524015 0)
(5.40055054558e-07 -0.0280456638137 0)
(1.79043878034e-06 -0.0280463320027 -6.93889390391e-18)
(0 0 0)
(0 0 0)
(0 0 0)
(-1.09248006855e-07 -0.00159914764573 0)
(-2.12671225326e-07 -0.00315196636082 0)
(-3.09321608132e-07 -0.00464746705875 0)
(-3.99261282645e-07 -0.00609057883824 0)
(-4.82426078451e-07 -0.00748563575163 0)
(-5.58623567257e-07 -0.00883650819218 0)
(-6.27522300836e-07 -0.010146658374 0)