/*--------------------------------*- C++ -*----------------------------------*\
| =========                 |                                                 |
| \\      /  F ield         | foam-extend: Open Source CFD                    |
|  \\    /   O peration     | Version:     3.2                                |
|   \\  /    A nd           | Web:         http://www.foam-extend.org         |
|    \\/     M anipulation  | For copyright notice see file Copyright         |
\*---------------------------------------------------------------------------*/
FoamFile
{
    version     2.0;
    format      ascii;
    class       volVectorField;
    location    "1";
    object      U;
}
// * * * * * * * * * * * * * * * * * * * * * * * * * * * * * * * * * * * * * //

dimensions      [0 1 -1 0 0 0 0];

internalField   nonuniform List<vector> 
3200
(
(-0.0013462250583 0.00479987396668 -3.52860653876e-30)
(-0.00153024186898 0.00512023356392 -1.35158537393e-27)
(-0.00184510774494 0.00544256410929 -1.2984889467e-27)
(-0.00226151805942 0.0058285787971 -2.61815241211e-27)
(-0.00276971594651 0.00630846601948 -2.74495738116e-27)
(-0.00336466119827 0.0068920149064 7.91299196147e-30)
(-0.00404510176285 0.00759172311246 -1.00228140219e-29)
(-0.0048114601025 0.00841951477049 0)
(-0.0056636305177 0.00938609235584 -7.46194410542e-27)
(-0.00659903076561 0.0105006523589 -8.24688600008e-27)
(-0.00761031024334 0.011769990416 0)
(-0.00868225512828 0.0131973581733 -2.49706152477e-29)
(-0.00978699683809 0.014781184319 1.45940346594e-29)
(-0.0108765604365 0.0165137775398 -5.08138611549e-29)
(-0.0118709156666 0.0183804177446 -1.94933002225e-29)
(-0.0126397259847 0.0203591138734 4.43908816561e-29)
(-0.0129755221364 0.0224211497615 7.46250881618e-29)
(-0.0125580695538 0.0245394830037 -2.73636016768e-29)
(-0.0108989390471 0.0266952502145 -2.94309106488e-29)
(-0.00731464245323 0.0288884872198 0)
(-0.00095203228191 0.0311900674721 3.20925295885e-29)
(0.00906997356433 0.0337903863472 -1.74299966938e-25)
(0.023317570784 0.036543927011 -1.34366841881e-28)
(0.0418655195726 0.0392542842294 -1.78966562923e-25)
(-0.00154626553301 0.00435954550151 -2.07364236712e-30)
(-0.00176126830946 0.00460644859172 2.47954462274e-27)
(-0.00212708186251 0.00486100378291 2.40605432491e-27)
(-0.00260854398236 0.00517104960971 4.28630136111e-30)
(-0.00319283871628 0.00555917520716 6.065564085e-30)
(-0.00387310604404 0.0060314975162 -1.09624013412e-26)
(-0.00464687272975 0.00659544865485 -1.17918995283e-26)
(-0.00551345412921 0.00725740701861 -1.20101496096e-29)
(-0.00647136150088 0.00802202854893 0)
(-0.00751607382629 0.00889173631148 0)
(-0.00863766588447 0.00986575180788 -3.40217251465e-26)
(-0.00981778707392 0.0109389662322 -3.78477364838e-26)
(-0.01102536561 0.0121009015058 1.39624021431e-29)
(-0.012210082265 0.0133349537481 -1.65481173261e-29)
(-0.0132924842746 0.0146186355181 5.23223356625e-26)
(-0.014149239983 0.0159254076631 7.89379484371e-29)
(-0.0145923254452 0.0172261450202 -6.48157215577e-26)
(-0.0143419241067 0.0185056554769 -3.64837536584e-29)
(-0.0129758046795 0.0197666912352 0)
(-0.00992162602162 0.0210530714461 -8.07425930547e-26)
(-0.00446452235435 0.0225054841416 8.32177641183e-26)
(0.00417905294957 0.0243150525979 1.7758302341e-25)
(0.016636342789 0.0265410975962 0)
(0.0336755370621 0.0306998575785 1.39666515447e-25)
(-0.00169145799368 0.00385981970953 -2.26518354146e-30)
(-0.00193382909951 0.00402454494325 -1.05207204657e-35)
(-0.00234453398694 0.00420419611262 -3.20317954109e-30)
(-0.00288172812797 0.00443135836151 8.83670905811e-27)
(-0.00352919018382 0.00471999906885 9.30477452068e-27)
(-0.0042779351071 0.00507216310308 9.8167588981e-30)
(-0.0051239860053 0.00548989927093 0)
(-0.00606516526956 0.00597383446114 -7.4908268748e-30)
(-0.00709801455614 0.00652247790008 0)
(-0.00821526668005 0.00713149627434 2.74127640427e-26)
(-0.00940332621945 0.0077926220647 4.31395770679e-29)
(-0.0106393292496 0.00849254889099 -3.35043650245e-26)
(-0.011887134431 0.00921199794313 3.70654385764e-26)
(-0.013091584221 0.0099253616042 4.11740540531e-26)
(-0.0141698934644 0.0106014760727 -2.2917060297e-29)
(-0.0149990675244 0.0112072311257 -2.65133040134e-29)
(-0.0153983158576 0.0117066720358 0)
(-0.0151096897679 0.0120894529036 0)
(-0.0137421355464 0.0123532464585 0)
(-0.0107826818865 0.0125531792819 -2.42756941661e-29)
(-0.00557984790954 0.0128225655581 -1.41251871783e-29)
(0.00260637768179 0.0132671983664 -1.21862330391e-25)
(0.0145052966752 0.0138529575903 3.70476383934e-26)
(0.031000337133 0.0166907687165 -9.34861861875e-36)
(-0.00177502104842 0.00331412506018 -2.45937056059e-30)
(-0.00204065912633 0.00339024014857 9.34784625343e-31)
(-0.00248829933844 0.00349101284735 -3.76125706392e-27)
(-0.00306874795513 0.00363249406241 -1.16222277607e-26)
(-0.00376200351002 0.00381896273263 -1.62861719116e-26)
(-0.00455675991281 0.00404812419834 -8.64334041507e-27)
(-0.00544735723415 0.00431657762776 0)
(-0.00642984425925 0.00461932575639 1.66945066108e-29)
(-0.00749837397412 0.00494907574859 0)
(-0.00864238759036 0.00529526778656 0)
(-0.00984404710392 0.0056429224738 0)
(-0.0110754358921 0.0059715310801 0)
(-0.0122950726898 0.00625428082241 3.19066763661e-26)
(-0.0134430276459 0.00645796985499 3.53325351041e-26)
(-0.0144340012036 0.00654428379891 3.87689459611e-26)
(-0.0151469134406 0.00647381678603 4.26143974778e-26)
(-0.0154147697931 0.00621228710225 -3.20763088084e-29)
(-0.0149964623021 0.00573586857198 0)
(-0.0135481008789 0.00505381398429 0)
(-0.0106125020247 0.00422483399113 2.34524823982e-29)
(-0.00559754175076 0.00338443425613 -1.30811732357e-29)
(0.00220790668518 0.00263968367313 -7.2047452563e-30)
(0.0136286051059 0.00201799598488 -5.61939780929e-26)
(0.029698573079 0.0035263263818 3.9322294191e-28)
(-0.0017921949009 0.00273571916519 -1.96374000388e-27)
(-0.00207860398454 0.00271883274387 1.53287312717e-27)
(-0.00255657736727 0.00274019829418 6.30272848869e-27)
(-0.00316851751606 0.00279759723148 3.26932048873e-27)
(-0.00389045364176 0.00288431149192 0)
(-0.00470887349829 0.00299352989091 0)
(-0.00561654246014 0.00311658203928 0)
(-0.00660770089779 0.00324330880549 1.80654077144e-29)
(-0.00767394294797 0.00336131523852 1.075559156e-29)
(-0.00880117353056 0.00345478077115 -2.0079139343e-26)
(-0.00996704249645 0.00350327427655 -2.21062573385e-26)
(-0.0111384661394 0.00348075117623 2.42514919599e-26)
(-0.0122687193654 0.00335497517042 2.68232140687e-26)
(-0.0132937128891 0.00308784037548 0)
(-0.0141269976055 0.00263730252526 6.45268991497e-26)
(-0.0146526886507 0.0019617306389 7.0858416158e-26)
(-0.0147149339953 0.00102658729615 -3.27915955404e-29)
(-0.0141004831034 -0.000184535769569 0)
(-0.0125152436771 -0.00165078468804 0)
(-0.00956499491686 -0.00329298896846 -8.66415205267e-26)
(-0.00472970733021 -0.00494463884142 -8.70775173143e-26)
(0.00263938996801 -0.00642706119931 -8.28228614537e-26)
(0.0133528800891 -0.00756286482092 -4.26623592456e-28)
(0.0284086897048 -0.00658622862945 8.80684785609e-26)
(-0.00173865302767 0.00213624440051 2.05638332192e-27)
(-0.00204704868735 0.00202362347097 1.15777147733e-27)
(-0.00255174638546 0.00196901177906 0)
(-0.00318521968153 0.00194854220483 -3.47518274396e-30)
(-0.003920043194 0.00194278222446 0)
(-0.00474121110997 0.0019404243629 0)
(-0.00564042255334 0.0019280404396 0)
(-0.00661033684828 0.00189109856714 9.64137943786e-30)
(-0.00764005674325 0.00181311458964 2.290558625e-29)
(-0.00871198621057 0.00167426433008 1.61857823088e-26)
(-0.00979939250532 0.0014502720407 8.97617628993e-29)
(-0.0108642989491 0.00111159213803 -1.96094339809e-26)
(-0.0118553334868 0.000623156059598 1.16542970272e-35)
(-0.01270527792 -5.48524182524e-05 4.72949546061e-26)
(-0.0133280332865 -0.000964485628204 5.23229784806e-26)
(-0.0136143111677 -0.00214490465435 -1.48717886905e-29)
(-0.0134252175528 -0.00362387475181 6.21913874139e-26)
(-0.0125807940441 -0.00540448173011 6.77405781402e-26)
(-0.0108424246551 -0.00744560943457 7.2184011063e-26)
(-0.00789237930786 -0.00963760550936 4.47553366113e-28)
(-0.00330573581798 -0.0117705971336 -4.45230448482e-28)
(0.00346548498444 -0.0135816825183 8.85494703267e-26)
(0.0131371788931 -0.0147502485611 0)
(0.0265968247812 -0.0137391038621 -2.25594739319e-29)
(-0.00160849432145 0.00152544196651 -2.17778240925e-27)
(-0.0019472980415 0.00131577385266 -7.45558391968e-28)
(-0.00247969212864 0.00119385578491 -3.53224120655e-27)
(-0.00312673459144 0.0011066385706 -1.03850977307e-29)
(-0.00385986150496 0.00101994713383 8.22887491904e-27)
(-0.00466439251192 0.000918665162398 4.41868870294e-27)
(-0.00553193077928 0.000785625408782 -9.49339543922e-27)
(-0.00645400241436 0.000603042693232 -1.03272589784e-26)
(-0.00741745221871 0.000351556128673 -1.11518076136e-26)
(-0.00840147634582 8.71858103676e-06 -2.44780532504e-26)
(-0.0093754523408 -0.000451935114342 -9.98988820644e-29)
(-0.0102972729252 -0.00106141553147 1.48623420128e-26)
(-0.0111120019939 -0.00185513459259 -2.12708886964e-29)
(-0.0117508264886 -0.00287162059503 -2.40910836354e-29)
(-0.012130187391 -0.00414937599933 3.99631448664e-26)
(-0.0121507282033 -0.00572090520231 8.88328429035e-26)
(-0.0116950411656 -0.00760308921259 4.93553480088e-26)
(-0.0106218520559 -0.00978264017707 -5.43356017592e-26)
(-0.00875460699181 -0.0121959434168 -6.08803546651e-26)
(-0.00586290253688 -0.0147033694315 2.67034621182e-30)
(-0.00163300014203 -0.0170574955527 0)
(0.0043605011989 -0.0189335461518 -2.20000759237e-29)
(0.0127121228925 -0.0199218368659 0)
(0.0242082272881 -0.0186802720708 -2.75793571067e-29)
(-0.00140019497522 0.000912002783662 -2.38964690597e-27)
(-0.00178812918122 0.000604777035376 -2.37635426259e-28)
(-0.00235216024468 0.000431564783616 -1.93397858908e-27)
(-0.00300523260572 0.000293518582198 -1.61425972072e-29)
(-0.00372257908438 0.000140405992127 2.13153012407e-29)
(-0.00449266817549 -4.45143067301e-05 -2.89522317971e-27)
(-0.00530815655907 -0.000280341834132 -8.76613158531e-30)
(-0.00615984705991 -0.000586725089085 1.05444114211e-29)
(-0.00703262841476 -0.00098465295934 -7.42432880425e-27)
(-0.00790293298834 -0.00149789513017 -9.60620905588e-29)
(-0.00873696681207 -0.00215363529092 9.08458664862e-27)
(-0.00948956467496 -0.00298261445502 5.09950906906e-36)
(-0.0101037208436 -0.0040185611371 0)
(-0.0105109732589 -0.00529638703925 2.46331597284e-29)
(-0.0106327654964 -0.00684855375373 0)
(-0.0103825527553 -0.00869864117793 3.17567010494e-26)
(-0.00966775937775 -0.0108512067183 3.65179885397e-26)
(-0.00838941179796 -0.0132769966381 -1.87337241023e-29)
(-0.00643641182529 -0.0158930434609 0)
(-0.0036698310037 -0.0185375548772 -5.78500931614e-26)
(0.000108371549545 -0.0209408838021 -7.32508693948e-26)
(0.00519737229097 -0.022747545696 -2.33285203639e-29)
(0.0120757204753 -0.0235130275781 -2.33220779712e-29)
(0.0214695582318 -0.0220660874221 0)
(-0.00112597341336 0.00029206277981 0)
(-0.00159660902253 -9.37655129672e-05 0)
(-0.00218852476771 -0.000294624947892 -7.91497733246e-29)
(-0.00283581159136 -0.000467011642431 -2.31825901734e-29)
(-0.00352254071125 -0.000672339109831 -1.11071386069e-27)
(-0.00424213974629 -0.000925323127577 -2.68095121899e-27)
(-0.00498865856126 -0.00124491337009 -1.81420192743e-29)
(-0.00575214966834 -0.00165131148487 0)
(-0.00651572868905 -0.00216612253638 0)
(-0.00725357060034 -0.00281341686497 1.48632772126e-29)
(-0.00792956993282 -0.00361997417026 -2.49990273738e-36)
(-0.00849674738759 -0.0046150041025 -1.04512989637e-26)
(-0.00889765868243 -0.00582918192521 -1.22756025227e-26)
(-0.00906615068065 -0.00729246481801 1.39258068147e-26)
(-0.00893079432019 -0.00903014067722 1.66040859061e-26)
(-0.00841991607124 -0.0110563688414 -1.56397358554e-29)
(-0.00746750931578 -0.0133641713224 1.73392752279e-29)
(-0.00601783552307 -0.0159111542685 0)
(-0.00402461914638 -0.0186009400718 -3.51994114803e-26)
(-0.00143821675071 -0.0212599988212 -4.57387215137e-26)
(0.00182786513912 -0.0236122410096 -6.1679895613e-26)
(0.00595370449238 -0.0252971543641 -8.60544516447e-26)
(0.0113170808104 -0.0258718646896 -2.69475507423e-29)
(0.0186188051965 -0.0243140360829 5.0941469453e-29)
(-0.000620324909582 -0.000381983808566 0)
(-0.00136021987212 -0.000734136178622 3.51117947432e-30)
(-0.00199510348656 -0.000944108144516 -8.57143898282e-28)
(-0.00262740464859 -0.00114917184948 -4.78820033082e-28)
(-0.00327137520419 -0.00139826052976 -2.04143346714e-28)
(-0.003928293431 -0.00170559532098 3.47773447121e-28)
(-0.0045936039376 -0.00209007126538 1.62699790223e-28)
(-0.00525646361584 -0.00257205832819 0)
(-0.00589843038948 -0.00317327853551 -1.16532986072e-28)
(-0.00649200963846 -0.00391745975555 1.08805940783e-28)
(-0.0069997219248 -0.00483024440806 -6.28213607592e-28)
(-0.00737404142644 -0.00593858200546 -1.17916196804e-27)
(-0.00755862345633 -0.00726942968073 0)
(-0.00749128984937 -0.00884738857053 0)
(-0.00710927152272 -0.0106906877477 1.41647868557e-29)
(-0.00635683790245 -0.0128049358891 6.21001899759e-27)
(-0.00519465831319 -0.0151737945627 4.28417466874e-28)
(-0.00360867164559 -0.0177458689737 -1.35961963796e-26)
(-0.00161361541538 -0.0204179075624 -5.39605078147e-30)
(0.00075713653941 -0.0230140585007 2.85747463634e-26)
(0.00348719703846 -0.025263982284 4.46277457886e-26)
(0.00664772555727 -0.0268178363053 1.42116034984e-29)
(0.0105296049128 -0.0272510053919 0)
(0.0158234910948 -0.0256710160899 1.5215593564e-25)
(-0.000468481703844 -0.00107182697888 5.2679730876e-28)
(-0.00116868120946 -0.00130404275763 -3.4661712444e-28)
(-0.00178740658214 -0.00151545839235 -1.05120678069e-36)
(-0.00238724680872 -0.00174854522135 -5.11649788849e-30)
(-0.00297945967509 -0.0020307590949 0)
(-0.00356642869864 -0.00237726261383 7.82262952994e-30)
(-0.00414347632061 -0.00280679509738 3.38509360534e-27)
(-0.00469876190757 -0.00333942387567 3.51500245299e-27)
(-0.0052126498136 -0.00399650132883 1.09737409151e-36)
(-0.00565662779649 -0.0048008922747 -8.08191417633e-27)
(-0.00599274836513 -0.00577661126855 -8.14886397152e-27)
(-0.00617407451138 -0.00694801432034 -1.9777888688e-29)
(-0.00614662367731 -0.00833829712408 -1.12107933608e-29)
(-0.00585340437672 -0.00996705516849 8.62530868272e-27)
(-0.00524116212521 -0.011846439673 7.88030684768e-27)
(-0.00427016679856 -0.0139753702346 5.74994048226e-38)
(-0.00292648297238 -0.0163311486463 6.05251720573e-27)
(-0.00123443992246 -0.0188578186024 3.16888495808e-27)
(0.000735909866892 -0.0214511990265 -2.78598636332e-30)
(0.00287626497153 -0.0239404012155 -1.55812786458e-30)
(0.00507695767993 -0.026068558442 1.39486077819e-29)
(0.00730917331681 -0.0275039160293 -3.89179014804e-26)
(0.00978531249777 -0.0278430662964 -8.81448390332e-26)
(0.0131803853994 -0.0263023334892 -1.14251965116e-25)
(-0.000358727578334 -0.00168737136654 -1.11877417168e-28)
(-0.000990316928026 -0.00184089585342 4.72058123603e-28)
(-0.00157214280928 -0.00203676697932 1.06868258794e-27)
(-0.00212742258006 -0.00227725643148 -1.00680067462e-29)
(-0.00266139218083 -0.00257457564393 0)
(-0.00317425539024 -0.00294145664573 7.81351417812e-30)
(-0.00365988183216 -0.00339456510012 6.48136141046e-27)
(-0.0041052573023 -0.003952536831 -1.02175707329e-28)
(-0.00448980306373 -0.00463549237244 -1.48982257387e-26)
(-0.00478450234025 -0.00546479621642 -7.91383225663e-27)
(-0.00495165011572 -0.00646244742876 0)
(-0.00494573715385 -0.00765011259072 -1.82172201705e-26)
(-0.00471598579496 -0.00904755950511 -1.8919503258e-26)
(-0.00421123930759 -0.0106702595384 0)
(-0.00338789833784 -0.0125258531396 0)
(-0.00222140271736 -0.0146090072967 -2.18517196557e-26)
(-0.000720871740474 -0.0168940718443 -2.18896494502e-26)
(0.00105522144853 -0.0193248808729 1.01192404298e-29)
(0.00298797286013 -0.0218014439565 2.8596981683e-30)
(0.0049023763669 -0.0241631430197 4.74700213157e-40)
(0.00660401061891 -0.0261707823058 -4.26703554913e-38)
(0.00796940949723 -0.0275123681024 1.82262678284e-27)
(0.0091295868027 -0.0278027848531 4.85438946205e-27)
(0.010739574082 -0.0263473627696 -6.13519378493e-26)
(-0.000287210828547 -0.00222143303255 0)
(-0.000840795314124 -0.00233231747862 -2.91403321732e-27)
(-0.00136663228421 -0.00250674779636 -3.29422918175e-27)
(-0.00186553005398 -0.00273899468705 -4.86043270884e-30)
(-0.0023351729219 -0.00303450099744 0)
(-0.00277123204297 -0.00340304192531 -7.68405981982e-30)
(-0.00316494602623 -0.00385857113347 -9.24700093925e-30)
(-0.00350172565769 -0.00441750587136 -1.0933810082e-29)
(-0.00376006003008 -0.00509793396019 -1.11361687136e-26)
(-0.00391067921107 -0.00591908358919 -1.18747081366e-26)
(-0.0039165092259 -0.00690059384747 0)
(-0.00373389277265 -0.00806147432098 -9.64696602453e-30)
(-0.00331559998076 -0.00941857878958 -2.97728623588e-26)
(-0.00261633564902 -0.0109843989517 3.32399178142e-28)
(-0.00160155917668 -0.0127639486146 3.39365595924e-26)
(-0.00026024375641 -0.0147503505965 8.04177610912e-37)
(0.00137846742745 -0.0169185508171 8.95578758124e-30)
(0.0032268028977 -0.0192164806934 4.28753253077e-26)
(0.00512356373176 -0.0215530736817 -5.09866451716e-28)
(0.00683447459291 -0.0237823586343 -9.5827316366e-26)
(0.00808678875269 -0.0256853635079 5.67746452878e-28)
(0.00866444748656 -0.026969026952 4.27384547255e-26)
(0.00860788579285 -0.0272622679847 4.24037055881e-29)
(0.00853746478563 -0.0259424836137 0)
(-0.000237823962143 -0.00268155478154 0)
(-0.000715709690649 -0.00276716643029 0)
(-0.00117793443462 -0.00291951168192 3.32842488945e-30)
(-0.00161446113818 -0.00313426524412 0)
(-0.00201659840996 -0.0034148061705 -1.07392917836e-26)
(-0.00237547053661 -0.00376891151974 -1.1572047776e-26)
(-0.00267946137251 -0.00420801628991 -1.25931728101e-26)
(-0.00291226703873 -0.00474593264152 -1.3504756873e-26)
(-0.00305144538441 -0.00539811006998 6.2085439148e-30)
(-0.00306754200305 -0.0061810846201 -3.18448102898e-26)
(-0.0029241927084 -0.00711179264906 -3.41944510098e-26)
(-0.00257959811073 -0.00820661392186 3.72803412092e-26)
(-0.00198986509831 -0.00948000506972 4.00682739797e-26)
(-0.00111494241308 -0.0109426223932 4.38478563742e-26)
(7.19877937738e-05 -0.0125987380784 4.75028770185e-26)
(0.00157073854762 -0.0144426357858 7.7639714993e-30)
(0.00333591595545 -0.0164534418319 8.8298952076e-30)
(0.00525576142659 -0.018587547532 -6.49507277868e-26)
(0.00713333094245 -0.0207676512053 -7.233858705e-26)
(0.00868170230086 -0.0228671421342 1.68898464918e-30)
(0.00955397617013 -0.0246908091575 7.92632011934e-30)
(0.0094377507276 -0.0259650875389 -1.87628138213e-29)
(0.00827746241058 -0.0263300162312 -2.23685767527e-29)
(0.00661656479167 -0.0252087827882 -5.23619369746e-29)
(-0.000199838578659 -0.00307353507138 2.2998515044e-27)
(-0.000609611357909 -0.00314195144872 2.61117649919e-27)
(-0.00100907475783 -0.00327264040876 5.68831107719e-27)
(-0.00138285956283 -0.00346438829963 1.84907658761e-26)
(-0.00171795836698 -0.00372059120355 1.33013963346e-26)
(-0.0020021147281 -0.0040478305746 -3.5772129455e-30)
(-0.00222141089541 -0.00445524567467 -4.31969971128e-30)
(-0.00235809571195 -0.00495376566804 5.11467949515e-30)
(-0.00238890829884 -0.00555568095191 0)
(-0.00228420266069 -0.00627429312503 0)
(-0.00200816069603 -0.00712343396987 0)
(-0.00152046231594 -0.00811672301968 -9.05000026814e-30)
(-0.000779840211493 -0.00926652376107 0)
(0.000249764577773 -0.0105825122597 0)
(0.00158944268796 -0.0120697869974 -6.62260242272e-30)
(0.00323096219804 -0.0137262179042 6.86226631709e-26)
(0.00511719220375 -0.0155384618367 -4.24746587524e-28)
(0.00711835226051 -0.0174756738476 -8.76106044348e-26)
(0.00900873534899 -0.0194795251591 -2.85492454248e-30)
(0.0104553644871 -0.021448666167 2.50878873809e-30)
(0.0110399349819 -0.0232178734064 7.92739571967e-30)
(0.0103493233827 -0.0245367507053 3.07494552108e-25)
(0.00821126340199 -0.0250582449272 3.51844805767e-25)
(0.00504664862599 -0.0242340987754 -5.50127396583e-29)
(-0.000169413714989 -0.0034026232685 0)
(-0.00052038914817 -0.00345734231252 6.35406728504e-27)
(-0.000862110745339 -0.00356664612235 1.369391289e-26)
(-0.0011764742265 -0.00373226481136 -7.41978949429e-27)
(-0.00144802284121 -0.00395826830944 -1.5888840525e-26)
(-0.00166260108967 -0.00425028276298 1.71899002239e-26)
(-0.0018049902842 -0.0046150766449 1.84894467309e-26)
(-0.00185655002207 -0.00506031671606 -4.86146032507e-30)
(-0.00179345830955 -0.00559456985746 0)
(-0.00158584012002 -0.00622728977632 0)
(-0.00119812024677 -0.0069686230751 -7.55905753384e-30)
(-0.000590809126992 -0.00782901676177 -5.64109518622e-26)
(0.000275845004457 -0.00881858333446 -6.14760615384e-26)
(0.00143566541557 -0.00994630886777 0)
(0.00290674145847 -0.0112190105582 -6.33104865885e-30)
(0.00467673346003 -0.0126398213701 -8.48125765478e-26)
(0.00668219100267 -0.0142055863145 -9.61427225297e-26)
(0.00878233676657 -0.0159021075737 -1.11629990714e-25)
(0.0107309441285 -0.0176954510212 -1.30528948619e-25)
(0.0121568955401 -0.0195168512979 8.07028960579e-31)
(0.0125743925561 -0.0212410713609 0)
(0.0114651239583 -0.0226520679279 -2.01137984089e-36)
(0.00850867970197 -0.023425999986 -5.09736309944e-25)
(0.0039522332946 -0.0230459143339 -5.72375135836e-25)
(-0.00014525600073 -0.00367372510811 0)
(-0.000447372061482 -0.00371581589925 0)
(-0.000738244396727 -0.00380378482797 0)
(-0.000998526505767 -0.00394207088588 0)
(-0.00121198362964 -0.00413535292364 -1.85175592102e-26)
(-0.00136422432447 -0.00438802944347 -3.98393585102e-26)
(-0.00143991383133 -0.00470405468046 -2.14887465366e-26)
(-0.00142028899309 -0.00508726989301 -4.56571673234e-30)
(-0.00128129981225 -0.00554186481928 5.34752488552e-30)
(-0.000992876449403 -0.00607269790996 -5.5411061797e-26)
(-0.000519348290082 -0.00668543191231 -6.02518025596e-26)
(0.000178674868896 -0.00738648520376 0)
(0.00114075217475 -0.00818294513845 -4.6516074971e-30)
(0.00240059882067 -0.00908250435031 0)
(0.00397655225457 -0.0100934621101 0)
(0.00585679503106 -0.0112245612719 0)
(0.00797802049118 -0.0124840931808 0)
(0.0101969274216 -0.013877153006 0)
(0.012257182404 -0.0153989221011 1.60294692146e-25)
(0.0137607150612 -0.0170210451349 1.92645781819e-25)
(0.0141630602357 -0.0186708902834 0)
(0.0128394452137 -0.0201866880589 8.83127102317e-30)
(0.00929256547585 -0.0212922893347 3.29668145888e-29)
(0.00352899944928 -0.0215425787909 0)
(-0.000127206903933 -0.00389105052762 0)
(-0.000390627325783 -0.0039199731908 8.49535657494e-27)
(-0.000637812082929 -0.00398663850604 9.11852474495e-27)
(-0.000849777663142 -0.00409831739771 -1.96346082123e-26)
(-0.00101139422404 -0.00425973838015 5.0946148612e-29)
(-0.00110983445832 -0.00447333837671 -6.13487607262e-29)
(-0.00113093419292 -0.00473949109371 -2.45875585954e-26)
(-0.00105658201858 -0.00505752915668 -5.35979699876e-26)
(-0.000862953315485 -0.00542656111105 -5.82191636543e-26)
(-0.000519906580424 -0.00584604121133 0)
(8.47157335256e-06 -0.00631609066875 0)
(0.000762098427756 -0.00683780530952 -3.8359532762e-30)
(0.00178156086296 -0.00741367501173 8.39894018116e-26)
(0.00310266843593 -0.00804834350099 9.25772383076e-26)
(0.00474738164773 -0.00874975657207 0)
(0.00670957643502 -0.0095305990613 0)
(0.00893339395867 -0.0104095127626 -3.59598250876e-30)
(0.0112831140458 -0.0114110260333 0)
(0.0135053838939 -0.0125617898871 1.17236504838e-30)
(0.0151911813302 -0.013879914853 3.41453726445e-31)
(0.0157549017799 -0.0153573269064 3.24877352835e-30)
(0.0144763673714 -0.0169117476819 -7.01687808021e-25)
(0.0106679406718 -0.0183550846857 -8.49721030889e-25)
(0.00402846392633 -0.0194099281966 -1.08015909143e-24)
(-0.00011609545994 -0.00405763914599 0)
(-0.000350819416309 -0.0040709847184 -9.55587044598e-27)
(-0.00056006158558 -0.00411649427603 -1.0266698509e-26)
(-0.000728355951137 -0.00420463782201 2.212802015e-26)
(-0.000843962105203 -0.00433870897639 2.37838762476e-26)
(-0.000897644011034 -0.00451799628468 -4.00257433934e-30)
(-0.000877480256958 -0.00473830560579 0)
(-0.000766750097229 -0.00499383963335 0)
(-0.000542318241172 -0.00527806226943 -6.665874669e-26)
(-0.000174384831773 -0.00558426037408 -1.45637071708e-25)
(0.000373055571391 -0.0059058552142 -7.96233129418e-26)
(0.0011405723964 -0.00623690849211 -3.58877619364e-30)
(0.00217061030621 -0.00657295660994 0)
(0.00350271357497 -0.0069125144151 4.67513487226e-30)
(0.00516559642986 -0.00725936834576 -1.1833986746e-25)
(0.00716381278542 -0.00762574442942 3.25588513491e-28)
(0.00945674977244 -0.00803604158364 1.52372664332e-25)
(0.0119275418216 -0.00853020977918 0)
(0.0143414679315 -0.00916421017614 4.28314913539e-25)
(0.0162991863529 -0.010003713008 5.24372405781e-25)
(0.0172015093074 -0.0111104234134 2.77415212974e-30)
(0.0162665435256 -0.0125012563545 0)
(0.0126411948741 -0.0141183506263 -8.26215094711e-30)
(0.00569226793633 -0.016002467085 -1.34906170167e-24)
(-0.000114988585427 -0.00417456340475 1.88320792335e-31)
(-0.000329484169498 -0.00416652248451 -4.07054990836e-31)
(-0.000502406430601 -0.00419157628327 -1.15085657135e-26)
(-0.000629013794026 -0.00426263550826 1.24484290759e-26)
(-0.000703124115099 -0.00437801345108 2.68315511438e-26)
(-0.000721021150829 -0.00453231327064 -1.17352108344e-30)
(-0.000673523417769 -0.00471574721609 0)
(-0.000545795031028 -0.00491717997651 0)
(-0.000315942704428 -0.00512425705652 2.06565379433e-30)
(4.47447551113e-05 -0.00532364484041 -2.44974495534e-30)
(0.00057156836699 -0.00550100440178 -2.88010040256e-30)
(0.0013051658721 -0.00564147499907 -1.00487169057e-25)
(0.00228959582503 -0.00573067426072 -1.10115987377e-25)
(0.00356874351985 -0.00575666424352 0)
(0.00517986976433 -0.00571310083281 0)
(0.00714216445673 -0.00560401160196 1.46632260047e-36)
(0.00943734415774 -0.00545018947605 0)
(0.0119791100318 -0.00529699999326 3.98847620378e-25)
(0.0145684837747 -0.00522067257441 4.74963080468e-25)
(0.0168388476881 -0.00532779496228 0)
(0.0182075384149 -0.00574410391692 -1.1215229075e-30)
(0.0178915326418 -0.00657973113983 -2.54864453762e-30)
(0.0149570040526 -0.00790803595712 -1.15514477535e-24)
(0.00852831753619 -0.0102266663816 -1.57591788824e-24)
(-0.000133928587232 -0.00424007927449 -5.52024172591e-27)
(-0.000331752819197 -0.00419602638015 -1.79298454146e-26)
(-0.000460138485918 -0.00420408899248 1.07779091716e-29)
(-0.000542443092513 -0.0042710607199 -1.41457000577e-26)
(-0.000577652663243 -0.00438129501312 -3.06509697892e-26)
(-0.000568611231831 -0.00452433083284 -9.63393596404e-31)
(-0.000507816627556 -0.00468407459015 0)
(-0.000382558541616 -0.00484487155891 0)
(-0.000172762598609 -0.00498904641884 0)
(0.000147831992142 -0.00509684116255 -9.71198008932e-26)
(0.000612275277643 -0.00514550256221 -1.06397536163e-25)
(0.00125944456488 -0.00510963112985 3.18950074256e-30)
(0.00213327410058 -0.00496179801074 2.16567758832e-36)
(0.0032804460319 -0.00467446943407 1.40847765522e-25)
(0.00474600342405 -0.00422325411658 1.54950474076e-25)
(0.00656467054253 -0.00359258762856 2.87329251204e-30)
(0.00874478462872 -0.00278428897402 1.60628883414e-30)
(0.0112407278944 -0.00183054868272 0)
(0.0139063940173 -0.000809093028959 1.89582567707e-30)
(0.0164306124242 0.000147869590286 0)
(0.0182737744507 0.000864020198592 -1.03552525816e-30)
(0.0186978189552 0.00117623931209 -2.10039591396e-30)
(0.0168533964234 0.000982028359147 -1.25512267878e-24)
(0.0118807312195 -0.000649743367624 7.11295644383e-29)
(-0.000183412304319 -0.0042492896248 0)
(-0.000365677064021 -0.00412621612617 -4.04701270587e-31)
(-0.000426776071118 -0.00413164520949 -2.18904573171e-31)
(-0.000457516972206 -0.00422347148345 0)
(-0.000454326487032 -0.00434857278293 0)
(-0.000426946137571 -0.00449831128917 -1.0313913602e-30)
(-0.000365558484414 -0.0046503205475 0)
(-0.000259822654267 -0.00478762369729 9.62049545392e-26)
(-9.19459955482e-05 -0.00488852126097 1.05682473977e-25)
(0.000159991163233 -0.00492813801556 0)
(0.000524683280884 -0.00487547577299 1.27878115071e-25)
(0.00103646186254 -0.00469385765762 1.40250419546e-25)
(0.00173598772148 -0.0043402418526 1.81620004618e-30)
(0.00266915269553 -0.00376638142334 -2.17775817198e-30)
(0.00388534122965 -0.00292076748794 0)
(0.00543284639449 -0.00175367414158 0)
(0.0073485976201 -0.000225589769176 1.66709161497e-30)
(0.00963662224788 0.00167554693635 0)
(0.0122280194284 0.00390672987047 9.36846485322e-31)
(0.0148996585258 0.00633567570648 0)
(0.0171414481036 0.00874414952064 -1.97813290923e-31)
(0.0181521093455 0.010969462344 0)
(0.0171965160343 0.0130575981589 0)
(0.0138392413714 0.0140019797617 1.57227305311e-24)
(-0.000247873775507 -0.00413253209633 1.16248116737e-26)
(-0.000349972136596 -0.00388405266374 1.7886134873e-26)
(-0.000322708521951 -0.00392194713193 3.3794528558e-26)
(-0.000318163591882 -0.00410075778074 6.17635742536e-26)
(-0.000296018407383 -0.0042653791701 4.50463460862e-26)
(-0.000270185180852 -0.0044446736441 -4.99667500336e-26)
(-0.000226664616176 -0.00460464646483 -5.48166255949e-26)
(-0.000159694908437 -0.00473651238692 0)
(-5.62905213396e-05 -0.00481522303313 2.8046238551e-31)
(9.76668753276e-05 -0.00481423937611 1.45550597372e-25)
(0.000322179422915 -0.00469494960105 3.19803318896e-25)
(0.000641254045047 -0.00440994196769 1.75528410646e-25)
(0.00108458288171 -0.00389847835238 1.92751956227e-25)
(0.00168690852147 -0.00308641448097 -3.0121126456e-28)
(0.00248775790451 -0.00188395954965 -4.61603248742e-25)
(0.0035293324278 -0.000188100738339 -2.51870091222e-25)
(0.00485127549154 0.00211027037427 1.17039211041e-30)
(0.00649397531608 0.00511868337482 0)
(0.00846624944317 0.00890726219193 6.7227174963e-25)
(0.0106569776559 0.0133779730548 1.53971356372e-24)
(0.0126608910894 0.0181545939749 9.58367799511e-25)
(0.0138043991085 0.0229372500607 1.27063961164e-24)
(0.013691119957 0.0280418029341 -7.22216360292e-28)
(0.0124553219725 0.0328880192537 -1.65825124336e-24)
(-0.00117592641756 -0.00249128038184 0)
(-0.000541684073102 -0.0035955072347 1.46571665373e-31)
(-0.000266092935012 -0.00356209800622 0)
(-0.000202897142572 -0.00394326489375 -5.78373341504e-26)
(-0.000141418135649 -0.00411842827725 -6.06823413129e-26)
(-0.0001214245171 -0.00433549672932 6.60804318203e-26)
(-9.38719433383e-05 -0.00450173335029 7.14939549724e-26)
(-6.54752042193e-05 -0.00464515153573 1.55927828837e-25)
(-2.2986875482e-05 -0.00472841324057 3.15300365342e-30)
(3.67086730775e-05 -0.00473474805604 -1.87067096318e-25)