/*--------------------------------*- C++ -*----------------------------------*\
| =========                 |                                                 |
| \\      /  F ield         | foam-extend: Open Source CFD                    |
|  \\    /   O peration     | Version:     3.2                                |
|   \\  /    A nd           | Web:         http://www.foam-extend.org         |
|    \\/     M anipulation  | For copyright notice see file Copyright         |
\*---------------------------------------------------------------------------*/
FoamFile
{
    version     2.0;
    format      ascii;
    class       regIOobject;
    location    "1/uniform";
    object      profilingInfo;
}
// * * * * * * * * * * * * * * * * * * * * * * * * * * * * * * * * * * * * * //

profilingInfo
(

    {
        id              29;
        parentId        28;
        description     "Foam::Time::writeObject - outputTime";
        calls           90;
        totalTime       6.500284;
        childTime       0;
        onStack         1;
    }

    {
        id              28;
        parentId        1;
        description     "Foam::Time::writeObject";
        calls           90;
        totalTime       6.501319;
        childTime       6.500284;
        onStack         1;
    }

    {
        id              1;
        description     "application::main";
        calls           1;
        totalTime       62.116727;
        childTime       15.503189;
        onStack         1;
    }

    {
        id              13;
        parentId        1;
        description     "MULES::explicitSolve";
        calls           270;
        totalTime       1.785667;
        childTime       0;
        onStack         0;
    }

    {
        id              7;
        parentId        6;
        description     "functionObjectList::read";
        calls           1;
        totalTime       1.2e-05;
        childTime       0;
        onStack         0;
    }

    {
        id              30;
        parentId        1;
        description     "functionObjects_.execute()";
        calls           89;
        totalTime       0.001012;
        childTime       0;
        onStack         0;
    }

    {
        id              6;
        parentId        1;
        description     "functionObjects_.start()";
        calls           1;
        totalTime       2.9e-05;
        childTime       1.2e-05;
        onStack         0;
    }

    {
        id              14;
        parentId        1;
        description     "fvMatrix::solve_U";
        calls           90;
        totalTime       0.572828;
        childTime       0.420817;
        onStack         0;
    }

    {
        id              8;
        parentId        1;
        description     "fvMatrix::solve_cellDisplacement";
        calls           90;
        totalTime       1.625932;
        childTime       1.542191;
        onStack         0;
    }

    {
        id              24;
        parentId        1;
        description     "fvMatrix::solve_epsilon";
        calls           90;
        totalTime       0.287244;
        childTime       0.241469;
        onStack         0;
    }

    {
        id              26;
        parentId        1;
        description     "fvMatrix::solve_k";
        calls           90;
        totalTime       0.249015;
        childTime       0.233246;
        onStack         0;
    }

    {
        id              2;
        parentId        1;
        description     "fvMatrix::solve_pcorr";
        calls           1;
        totalTime       0.029091;
        childTime       0.02888;
        onStack         0;
    }

    {
        id              19;
        parentId        1;
        description     "fvMatrix::solve_pd";
        calls           360;
        totalTime       4.451052;
        childTime       4.374192;
        onStack         0;
    }

    {
        id              16;
        parentId        15;
        description     "lduMatrix::smoother_Ux";
        calls           90;
        totalTime       0.191478;
        childTime       0;
        onStack         0;
    }

    {
        id              18;
        parentId        17;
        description     "lduMatrix::smoother_Uy";
        calls           90;
        totalTime       0.185628;
        childTime       0;
        onStack         0;
    }

    {
        id              15;
        parentId        14;
        description     "lduMatrix::solver_Ux";
        calls           90;
        totalTime       0.214249;
        childTime       0.191478;
        onStack         0;
    }

    {
        id              17;
        parentId        14;
        description     "lduMatrix::solver_Uy";
        calls           90;
        totalTime       0.206568;
        childTime       0.185628;
        onStack         0;
    }

    {
        id              9;
        parentId        8;
        description     "lduMatrix::solver_cellDisplacementx";
        calls           90;
        totalTime       0.997556;
        childTime       0.037178;
        onStack         0;
    }

    {
        id              11;
        parentId        8;
        description     "lduMatrix::solver_cellDisplacementy";
        calls           90;
        totalTime       0.544635;
        childTime       0.017643;
        onStack         0;
    }

    {
        id              5;
        parentId        4;
        description     "lduMatrix::solver_coarsestLevelCorr";
        calls           8;
        totalTime       0.000339;
        childTime       0;
        onStack         0;
    }

    {
        id              10;
        parentId        9;
        description     "lduMatrix::solver_coarsestLevelCorr";
        calls           420;
        totalTime       0.037178;
        childTime       0;
        onStack         0;
    }

    {
        id              12;
        parentId        11;
        description     "lduMatrix::solver_coarsestLevelCorr";
        calls           226;
        totalTime       0.017643;
        childTime       0;
        onStack         0;
    }

    {
        id              21;
        parentId        20;
        description     "lduMatrix::solver_coarsestLevelCorr";
        calls           875;
        totalTime       0.054362;
        childTime       0;
        onStack         0;
    }

    {
        id              23;
        parentId        22;
        description     "lduMatrix::solver_coarsestLevelCorr";
        calls           546;
        totalTime       0.026767;
        childTime       0;
        onStack         0;
    }

    {
        id              4;
        parentId        3;
        description     "lduMatrix::solver_dummy";
        calls           1;
        totalTime       0.02858;
        childTime       0.000339;
        onStack         0;
    }

    {
        id              22;
        parentId        20;
        description     "lduMatrix::solver_dummy";
        calls           90;
        totalTime       2.039453;
        childTime       0.026767;
        onStack         0;
    }

    {
        id              25;
        parentId        24;
        description     "lduMatrix::solver_epsilon";
        calls           90;
        totalTime       0.241469;
        childTime       0;
        onStack         0;
    }

    {
        id              27;
        parentId        26;
        description     "lduMatrix::solver_k";
        calls           90;
        totalTime       0.233246;
        childTime       0;
        onStack         0;
    }

    {
        id              3;
        parentId        2;
        description     "lduMatrix::solver_pcorr";
        calls           1;
        totalTime       0.02888;
        childTime       0.02858;
        onStack         0;
    }

    {
        id              20;
        parentId        19;
        description     "lduMatrix::solver_pd";
        calls           360;
        totalTime       4.374192;
        childTime       2.093815;
        onStack         0;
    }
);


// ************************************************************************* //
