/*--------------------------------*- C++ -*----------------------------------*\
| =========                 |                                                 |
| \\      /  F ield         | foam-extend: Open Source CFD                    |
|  \\    /   O peration     | Version:     3.2                                |
|   \\  /    A nd           | Web:         http://www.foam-extend.org         |
|    \\/     M anipulation  | For copyright notice see file Copyright         |
\*---------------------------------------------------------------------------*/
FoamFile
{
    version     2.0;
    format      ascii;
    class       pointVectorField;
    location    "10";
    object      pointDisplacement;
}
// * * * * * * * * * * * * * * * * * * * * * * * * * * * * * * * * * * * * * //

dimensions      [0 1 0 0 0 0 0];

internalField   uniform 0; 


boundaryField
{
    frontAndBack
    {
        type            empty;
    }
    top
    {
        type            fixedValue;
        value           uniform (0 0 0);
    }
    inlet
    {
        type            fixedValue;
        value           uniform (0 0 0);
    }
    outlet
    {
        type            fixedValue;
        value           uniform (0 0 0);
    }
    floatingObject
    {
        type            sixDoFRigidBodyDisplacement;
        centreOfMass    (0 0 0.01875);
        initialCentreOfMass (0 0 0.01875);
        initialOrientation (1 0 0 0 1 0 0 0 1);
        momentOfInertia (0.006932 0.006932 5.824e-05);
        mass            0.083;
        report          true;
        constraints
        {
            maxIterations   500;
            fixedLine1
            {
                sixDoFRigidBodyMotionConstraint fixedLine;
                tolerance       1e-09;
                relaxationFactor 0.7;
                fixedLineCoeffs 
                {
                    refPoint        (0 0 0.01875);
                    direction       (0 1 0);
                }
            }
            fixedAxis1
            {
                sixDoFRigidBodyMotionConstraint fixedAxis;
                tolerance       1e-06;
                relaxationFactor 0.7;
                fixedAxisCoeffs 
                {
                    axis            (0 0 1);
                }
            }
        }
        rhoInf          1;
        initialPoints   nonuniform List<vector> 
64
(
(-0.0375 0 0)
(-0.0265165042945 0.0265165042945 0)
(-6.93889390391e-18 0.0375 0)
(0.0265165042945 0.0265165042945 0)
(0.0375 1.04083408559e-17 0)
(-0.0265165042945 -0.0265165042945 0)
(-6.93889390391e-18 -0.0375 0)
(0.0265165042945 -0.0265165042945 0)
(-0.0265165042945 0.0265165042945 0.0375)
(-0.0375 0 0.0375)
(-6.93889390391e-18 0.0375 0.0375)
(0.0265165042945 0.0265165042945 0.0375)
(0.0375 1.04083408559e-17 0.0375)
(-0.0265165042945 -0.0265165042945 0.0375)
(-6.93889390391e-18 -0.0375 0.0375)
(0.0265165042945 -0.0265165042945 0.0375)
(-0.0367794480151 0.00731588707559 0)
(-0.0346454824692 0.0143506287137 0)
(-0.0311801104614 0.0208338837382 0)
(-0.0208338837382 0.0311801104613 0)
(-0.0143506287137 0.0346454824692 0)
(-0.00731588707562 0.0367794480151 0)
(0.00731588707559 0.0367794480151 0)
(0.0143506287137 0.0346454824692 0)
(0.0208338837382 0.0311801104614 0)
(0.0311801104613 0.0208338837382 0)
(0.0346454824692 0.0143506287137 0)
(0.0367794480151 0.00731588707562 0)
(-0.0367794480151 -0.00731588707559 0)
(-0.0346454824692 -0.0143506287137 0)
(-0.0311801104614 -0.0208338837382 0)
(-0.0073158870756 -0.0367794480151 0)
(-0.0143506287136 -0.0346454824692 0)
(-0.0208338837382 -0.0311801104614 0)
(0.0208338837382 -0.0311801104613 0)
(0.0143506287137 -0.0346454824692 0)
(0.00731588707563 -0.0367794480151 0)
(0.0367794480151 -0.00731588707559 0)
(0.0346454824692 -0.0143506287136 0)
(0.0311801104614 -0.0208338837382 0)
(-0.0367794480151 0.00731588707559 0.0375)
(-0.0346454824692 0.0143506287137 0.0375)
(-0.0311801104614 0.0208338837382 0.0375)
(-0.00731588707562 0.0367794480151 0.0375)
(-0.0143506287137 0.0346454824692 0.0375)
(-0.0208338837382 0.0311801104613 0.0375)
(0.0208338837382 0.0311801104614 0.0375)
(0.0143506287137 0.0346454824692 0.0375)
(0.00731588707559 0.0367794480151 0.0375)
(0.0367794480151 0.00731588707562 0.0375)
(0.0346454824692 0.0143506287137 0.0375)
(0.0311801104613 0.0208338837382 0.0375)
(-0.0367794480151 -0.00731588707559 0.0375)
(-0.0346454824692 -0.0143506287137 0.0375)
(-0.0311801104614 -0.0208338837382 0.0375)
(-0.0073158870756 -0.0367794480151 0.0375)
(-0.0143506287136 -0.0346454824692 0.0375)
(-0.0208338837382 -0.0311801104614 0.0375)
(0.0208338837382 -0.0311801104613 0.0375)
(0.0143506287137 -0.0346454824692 0.0375)
(0.00731588707563 -0.0367794480151 0.0375)
(0.0367794480151 -0.00731588707559 0.0375)
(0.0346454824692 -0.0143506287136 0.0375)
(0.0311801104614 -0.0208338837382 0.0375)
)
;
        value           nonuniform List<vector> 
64
(
(2.3535605409e-10 -0.0246828731319 6.357137039e-13)
(2.2698640957e-06 -0.0246838133567 2.2981684264e-10)
(3.20989463138e-06 -0.0246860830659 3.24374381522e-10)
(2.26966982435e-06 -0.0246883526946 2.2891780832e-10)
(-3.93851201652e-11 -0.0246892927252 -6.357137039e-13)
(-2.26947385341e-06 -0.0246838131624 -2.2891780832e-10)
(-3.20969866044e-06 -0.0246860827912 -3.24374381522e-10)
(-2.26966812476e-06 -0.0246883525004 -2.2981684264e-10)
(2.26986470365e-06 -0.0246838136811 2.2981683917e-10)
(2.35963998341e-10 -0.0246828734563 6.357137039e-13)
(3.20989523933e-06 -0.0246860833903 3.24374381522e-10)
(2.2696704323e-06 -0.024688353019 2.2891780832e-10)
(-3.87771759147e-11 -0.0246892930495 -6.357137039e-13)
(-2.26947324546e-06 -0.0246838134868 -2.2891780832e-10)
(-3.2096980525e-06 -0.0246860831155 -3.24374381522e-10)
(-2.26966751681e-06 -0.0246883528247 -2.2981683917e-10)
(6.26432977775e-07 -0.024682934834 6.39058007901e-11)
(1.22856089699e-06 -0.0246831175157 1.24720022504e-10)
(1.78347967545e-06 -0.0246834141565 1.80741328154e-10)
(2.66902267722e-06 -0.0246842997753 2.7006062317e-10)
(2.9656159796e-06 -0.0246848547194 2.99926129071e-10)
(3.14824608854e-06 -0.024685456863 3.18265639537e-10)
(3.14819248919e-06 -0.0246867092635 3.18017598366e-10)
(2.9655108407e-06 -0.0246873113914 2.99439573831e-10)
(2.66887003921e-06 -0.0246878663102 2.69354257648e-10)
(1.78325123651e-06 -0.0246887518532 1.7968417379e-10)
(1.22830706924e-06 -0.0246890484465 1.23545378788e-10)
(6.2616351567e-07 -0.0246892310766 6.26588052277e-11)
(-6.25967544736e-07 -0.0246829347804 -6.26588052277e-11)
(-1.22811109831e-06 -0.0246831174105 -1.23545378788e-10)
(-1.78305526558e-06 -0.0246834140038 -1.7968417379e-10)
(-3.14799651826e-06 -0.0246854565935 -3.18017598366e-10)
(-2.96531486977e-06 -0.0246848544656 -2.99439573831e-10)
(-2.66867406827e-06 -0.0246842995468 -2.69354257648e-10)
(-2.66882670628e-06 -0.0246878660818 -2.7006062317e-10)
(-2.96542000867e-06 -0.0246873111376 -2.99926129071e-10)
(-3.1480501176e-06 -0.0246867089941 -3.18265639537e-10)
(-6.26237006841e-07 -0.024689231023 -6.39058007901e-11)
(-1.22836492605e-06 -0.0246890483414 -1.24720022504e-10)
(-1.78328370452e-06 -0.0246887517006 -1.80741328154e-10)
(6.2643358572e-07 -0.0246829351584 6.39058042595e-11)
(1.22856150494e-06 -0.02468311784 1.24720019035e-10)
(1.7834802834e-06 -0.0246834144808 1.80741331623e-10)
(3.14824669648e-06 -0.0246854571874 3.18265643007e-10)
(2.96561658755e-06 -0.0246848550438 2.99926132541e-10)
(2.66902328517e-06 -0.0246843000996 2.700606197e-10)
(2.66887064716e-06 -0.0246878666346 2.69354254179e-10)
(2.96551144865e-06 -0.0246873117158 2.994395773e-10)
(3.14819309714e-06 -0.0246867095879 3.18017598366e-10)
(6.26164123614e-07 -0.024689231401 6.26588017583e-11)
(1.22830767719e-06 -0.0246890487709 1.23545375319e-10)
(1.78325184446e-06 -0.0246887521776 1.79684177259e-10)
(-6.25966936792e-07 -0.0246829351048 -6.26588017583e-11)
(-1.22811049037e-06 -0.0246831177349 -1.23545375319e-10)
(-1.78305465762e-06 -0.0246834143282 -1.79684177259e-10)
(-3.14799591031e-06 -0.0246854569179 -3.18017598366e-10)
(-2.96531426182e-06 -0.02468485479 -2.994395773e-10)
(-2.66867346032e-06 -0.0246842998712 -2.69354254179e-10)
(-2.66882609833e-06 -0.0246878664061 -2.700606197e-10)
(-2.96541940072e-06 -0.024687311462 -2.99926132541e-10)
(-3.14804950965e-06 -0.0246867093184 -3.18265643007e-10)
(-6.26236398897e-07 -0.0246892313474 -6.39058042595e-11)
(-1.22836431811e-06 -0.0246890486658 -1.24720019035e-10)
(-1.78328309657e-06 -0.024688752025 -1.80741331623e-10)
)
;
    }
    bottom
    {
        type            fixedValue;
        value           uniform (0 0 0);
    }
}


// ************************************************************************* //
